 vasp.6.1.1 19Jun20 (build Jan 21 2021 08:43:03) complex                        
  
 executed on             LinuxIFC date 2023.06.14  19:52:44
 running on   40 total cores
 distrk:  each k-point on   40 cores,    1 groups
 distr:  one band on NCORE=   5 cores,    8 groups


--------------------------------------------------------------------------------------------------------


 INCAR:
 POTCAR:    PAW_PBE Fe_pv 02Aug2007               
 POTCAR:    PAW_PBE Co_pv 23Apr2009               
 POTCAR:      PAW_PBE In 08Apr2002                
 -----------------------------------------------------------------------------
|                                                                             |
|           W    W    AA    RRRRR   N    N  II  N    N   GGGG   !!!           |
|           W    W   A  A   R    R  NN   N  II  NN   N  G    G  !!!           |
|           W    W  A    A  R    R  N N  N  II  N N  N  G       !!!           |
|           W WW W  AAAAAA  RRRRR   N  N N  II  N  N N  G  GGG   !            |
|           WW  WW  A    A  R   R   N   NN  II  N   NN  G    G                |
|           W    W  A    A  R    R  N    N  II  N    N   GGGG   !!!           |
|                                                                             |
|     The value NCORE = 10 specified in the INCAR file was overwritten,       |
|     because it was not compatible with the 40 processes available:          |
|     NCORE = 5                                                               |
|     was used instead, please check that this makes sense for your           |
|     machine.                                                                |
|                                                                             |
 -----------------------------------------------------------------------------

 POTCAR:    PAW_PBE Fe_pv 02Aug2007               
   VRHFIN =Fe:  3pd7s1                                                                              
   LEXCH  = PE                                                                                      
   EATOM  =  2457.4239 eV,  180.6156 Ry                                                             
                                                                                                    
   TITEL  = PAW_PBE Fe_pv 02Aug2007                                                                 
   LULTRA =        F    use ultrasoft PP ?                                                          
   IUNSCR =        1    unscreen: 0-lin 1-nonlin 2-no                                               
   RPACOR =    1.750    partial core radius                                                         
   POMASS =   55.847; ZVAL   =   14.000    mass and valenz                                          
   RCORE  =    2.200    outmost cutoff radius                                                       
   RWIGS  =    2.200; RWIGS  =    1.164    wigner-seitz radius (au A)                               
   ENMAX  =  293.238; ENMIN  =  219.928 eV                                                          
   ICORE  =        3    local potential                                                             
   LCOR   =        T    correct aug charges                                                         
   LPAW   =        T    paw PP                                                                      
   EAUG   =  578.342                                                                                
   DEXC   =    0.000                                                                                
   RMAX   =    2.249    core radius for proj-oper                                                   
   RAUG   =    1.300    factor for augmentation sphere                                              
   RDEP   =    2.296    radius for radial grids                                                     
   RDEPT  =    1.766    core radius for aug-charge                                                  
                                                                                                    
   Atomic configuration                                                                             
    8 entries                                                                                       
     n  l   j            E        occ.                                                              
     1  0  0.50     -6993.8440   2.0000                                                             
     2  0  0.50      -814.6047   2.0000                                                             
     2  1  1.50      -693.3689   6.0000                                                             
     3  0  0.50       -89.4732   2.0000                                                             
     3  1  1.50       -55.6373   6.0000                                                             
     3  2  2.50        -3.8151   7.0000                                                             
     4  0  0.50        -4.2551   1.0000                                                             
     4  3  2.50        -1.3606   0.0000                                                             
   Description                                                                                      
     l       E           TYP  RCUT    TYP  RCUT                                                     
     1    -55.6372668     23  2.000                                                                 
     1     -5.4423304     23  2.000                                                                 
     2     -3.8151096     23  2.200                                                                 
     2     -5.1756922     23  2.200                                                                 
     0     -4.2550951     23  2.200                                                                 
     0     27.2116520     23  2.200                                                                 
     3     -1.3605826     23  2.200                                                                 
  local pseudopotential read in
  partial core-charges read in
  partial kinetic energy density read in
  atomic valenz-charges read in
  non local Contribution for L=           1  read in
    real space projection operators read in
  non local Contribution for L=           1  read in
    real space projection operators read in
  non local Contribution for L=           2  read in
    real space projection operators read in
  non local Contribution for L=           2  read in
    real space projection operators read in
  non local Contribution for L=           0  read in
    real space projection operators read in
  non local Contribution for L=           0  read in
    real space projection operators read in
    PAW grid and wavefunctions read in
 
   number of l-projection  operators is LMAX  =           6
   number of lm-projection operators is LMMAX =          18
 
 POTCAR:    PAW_PBE Co_pv 23Apr2009               
   VRHFIN =Co: 3pd7s1                                                                               
   LEXCH  = PE                                                                                      
   EATOM  =  2948.1334 eV,  216.6817 Ry                                                             
                                                                                                    
   TITEL  = PAW_PBE Co_pv 23Apr2009                                                                 
   LULTRA =        F    use ultrasoft PP ?                                                          
   IUNSCR =        1    unscreen: 0-lin 1-nonlin 2-no                                               
   RPACOR =    2.000    partial core radius                                                         
   POMASS =   58.933; ZVAL   =   15.000    mass and valenz                                          
   RCORE  =    2.300    outmost cutoff radius                                                       
   RWIGS  =    2.460; RWIGS  =    1.302    wigner-seitz radius (au A)                               
   ENMAX  =  271.042; ENMIN  =  203.281 eV                                                          
   ICORE  =        3    local potential                                                             
   LCOR   =        T    correct aug charges                                                         
   LPAW   =        T    paw PP                                                                      
   EAUG   =  543.066                                                                                
   DEXC   =    0.000                                                                                
   RMAX   =    2.360    core radius for proj-oper                                                   
   RAUG   =    1.300    factor for augmentation sphere                                              
   RDEP   =    2.393    radius for radial grids                                                     
   RDEPT  =    1.841    core radius for aug-charge                                                  
                                                                                                    
   Atomic configuration                                                                             
    8 entries                                                                                       
     n  l   j            E        occ.                                                              
     1  0  0.50     -7587.6674   2.0000                                                             
     2  0  0.50      -893.6084   2.0000                                                             
     2  1  1.50      -764.5805   6.0000                                                             
     3  0  0.50       -97.5973   2.0000                                                             
     3  1  1.50       -60.9648   6.0000                                                             
     3  2  2.50        -4.2382   8.0000                                                             
     4  0  0.50        -4.3746   1.0000                                                             
     4  3  2.50        -1.3606   0.0000                                                             
   Description                                                                                      
     l       E           TYP  RCUT    TYP  RCUT                                                     
     1    -60.9647990     23  2.000                                                                 
     1     -5.4423304     23  2.000                                                                 
     2     -4.2382362     23  2.300                                                                 
     2     -5.5988188     23  2.300                                                                 
     0     -4.3745797     23  2.300                                                                 
     0      5.7660125     23  2.300                                                                 
     3     -1.3605826     23  2.300                                                                 
  local pseudopotential read in
  partial core-charges read in
  partial kinetic energy density read in
  atomic valenz-charges read in
  non local Contribution for L=           1  read in
    real space projection operators read in
  non local Contribution for L=           1  read in
    real space projection operators read in
  non local Contribution for L=           2  read in
    real space projection operators read in
  non local Contribution for L=           2  read in
    real space projection operators read in
  non local Contribution for L=           0  read in
    real space projection operators read in
  non local Contribution for L=           0  read in
    real space projection operators read in
    PAW grid and wavefunctions read in
 
   number of l-projection  operators is LMAX  =           6
   number of lm-projection operators is LMMAX =          18
 
 POTCAR:      PAW_PBE In 08Apr2002                
   VRHFIN =In: s2p1                                                                                 
   LEXCH  = PE                                                                                      
   EATOM  =    53.7908 eV,    3.9535 Ry                                                             
                                                                                                    
   TITEL  = PAW_PBE In 08Apr2002                                                                    
   LULTRA =        F    use ultrasoft PP ?                                                          
   IUNSCR =        1    unscreen: 0-lin 1-nonlin 2-no                                               
   RPACOR =    2.400    partial core radius                                                         
   POMASS =  114.820; ZVAL   =    3.000    mass and valenz                                          
   RCORE  =    3.100    outmost cutoff radius                                                       
   RWIGS  =    3.170; RWIGS  =    1.677    wigner-seitz radius (au A)                               
   ENMAX  =   95.934; ENMIN  =   71.951 eV                                                          
   ICORE  =        3    local potential                                                             
   LCOR   =        T    correct aug charges                                                         
   LPAW   =        T    paw PP                                                                      
   EAUG   =  237.125                                                                                
   DEXC   =    0.000                                                                                
   RMAX   =    3.168    core radius for proj-oper                                                   
   RAUG   =    1.300    factor for augmentation sphere                                              
   RDEP   =    3.187    radius for radial grids                                                     
   RDEPT  =    2.711    core radius for aug-charge                                                  
                                                                                                    
   Atomic configuration                                                                             
   13 entries                                                                                       
     n  l   j            E        occ.                                                              
     1  0  0.50    -27747.9169   2.0000                                                             
     2  0  0.50     -4154.4438   2.0000                                                             
     2  1  1.50     -3728.4305   6.0000                                                             
     3  0  0.50      -788.3680   2.0000                                                             
     3  1  1.50      -648.9215   6.0000                                                             
     3  2  2.50      -432.5893  10.0000                                                             
     4  0  0.50      -119.6363   2.0000                                                             
     4  1  1.50       -78.1086   6.0000                                                             
     4  2  2.50       -18.6227  10.0000                                                             
     5  0  0.50        -8.2107   2.0000                                                             
     5  1  0.50        -2.5185   1.0000                                                             
     5  2  2.50        -1.3606   0.0000                                                             
     4  3  2.50        -2.7212   0.0000                                                             
   Description                                                                                      
     l       E           TYP  RCUT    TYP  RCUT                                                     
     0     -8.2107306     23  3.100                                                                 
     0     -6.1485975     23  3.100                                                                 
     1     -2.5184867     23  3.100                                                                 
     1      3.2427302     23  3.100                                                                 
     2     -1.3605826     23  3.100                                                                 
     3     -1.3605826     23  3.100                                                                 
  local pseudopotential read in
  partial core-charges read in
  partial kinetic energy density read in
  atomic valenz-charges read in
  non local Contribution for L=           0  read in
    real space projection operators read in
  non local Contribution for L=           0  read in
    real space projection operators read in
  non local Contribution for L=           1  read in
    real space projection operators read in
  non local Contribution for L=           1  read in
    real space projection operators read in
  non local Contribution for L=           2  read in
    real space projection operators read in
    PAW grid and wavefunctions read in
 
   number of l-projection  operators is LMAX  =           5
   number of lm-projection operators is LMMAX =          13
 
 Optimization of the real space projectors (new method)

 maximal supplied QI-value         = 17.01
 optimisation between [QCUT,QGAM] = [ 11.40, 22.79] = [ 36.36,145.44] Ry 
 Optimized for a Real-space Cutoff    1.47 Angstroem

   l    n(q)    QCUT    max X(q) W(low)/X(q) W(high)/X(q)  e(spline) 
   1     10    11.395     4.267    0.90E-04    0.11E-03    0.18E-06
   1     10    11.395     5.750    0.14E-03    0.15E-03    0.25E-06
   2      9    11.395    53.656    0.13E-03    0.36E-04    0.15E-06
   2      9    11.395    49.521    0.14E-03    0.36E-04    0.15E-06
   0     10    11.395    31.246    0.58E-04    0.17E-05    0.98E-07
   0     10    11.395    12.201    0.41E-04    0.11E-05    0.82E-07
 Optimization of the real space projectors (new method)

 maximal supplied QI-value         = 16.25
 optimisation between [QCUT,QGAM] = [ 11.38, 22.75] = [ 36.24,144.96] Ry 
 Optimized for a Real-space Cutoff    1.47 Angstroem

   l    n(q)    QCUT    max X(q) W(low)/X(q) W(high)/X(q)  e(spline) 
   1     10    11.376     4.946    0.88E-04    0.16E-03    0.15E-06
   1     10    11.376     5.991    0.13E-03    0.24E-03    0.21E-06
   2      9    11.376    46.947    0.87E-04    0.91E-04    0.20E-06
   2      9    11.376    42.928    0.91E-04    0.94E-04    0.20E-06
   0     10    11.376    68.324    0.58E-04    0.21E-04    0.82E-07
   0     10    11.376    36.926    0.52E-04    0.19E-04    0.78E-07
 Optimization of the real space projectors (new method)

 maximal supplied QI-value         = 12.09
 optimisation between [QCUT,QGAM] = [ 11.37, 22.86] = [ 36.19,146.31] Ry 
 Optimized for a Real-space Cutoff    1.66 Angstroem

   l    n(q)    QCUT    max X(q) W(low)/X(q) W(high)/X(q)  e(spline) 
   0     11    11.369   106.980    0.13E-03    0.70E-04    0.20E-05
   0     11    11.369    81.086    0.14E-03    0.77E-04    0.22E-05
   1     11    11.369    53.097    0.15E-03    0.30E-03    0.86E-06
   1     11    11.369    32.621    0.14E-03    0.28E-03    0.81E-06
   2     10    11.369     8.820    0.13E-03    0.44E-04    0.34E-06
  PAW_PBE Fe_pv 02Aug2007               :
 energy of atom  1       EATOM=-2457.4239
 kinetic energy error for atom=    0.0069 (will be added to EATOM!!)
  PAW_PBE Co_pv 23Apr2009               :
 energy of atom  2       EATOM=-2948.1334
 kinetic energy error for atom=    0.0060 (will be added to EATOM!!)
    PAW_PBE In 08Apr2002                :
 energy of atom  3       EATOM=  -53.7908
 kinetic energy error for atom=    0.0000 (will be added to EATOM!!)
 
 
 POSCAR: Heusler tetragonGa
  positions in direct lattice
  velocities in cartesian coordinates
 exchange correlation table for  LEXCH =        8
   RHO(1)=    0.500       N(1)  =     2000
   RHO(2)=  100.500       N(2)  =     4000
 


--------------------------------------------------------------------------------------------------------


 ion  position               nearest neighbor table
   1  0.500  0.000  0.500-   5 2.60   6 2.60   7 2.60   8 2.60  13 2.60  14 2.60  15 2.60  16 2.60

   2  0.000  0.500  0.500-   5 2.60   6 2.60   7 2.60   8 2.60  13 2.60  14 2.60  15 2.60  16 2.60

   3  0.500  0.500  0.000-   5 2.60   6 2.60   7 2.60   8 2.60  13 2.60  14 2.60  15 2.60  16 2.60

   4  0.000  0.000  0.000-   5 2.60   6 2.60   7 2.60   8 2.60  13 2.60  14 2.60  15 2.60  16 2.60

   5  0.250  0.250  0.750-   1 2.60   2 2.60   3 2.60   4 2.60   9 2.60  10 2.60  11 2.60  12 2.60

   6  0.250  0.750  0.250-   1 2.60   2 2.60   3 2.60   4 2.60   9 2.60  10 2.60  11 2.60  12 2.60

   7  0.750  0.250  0.250-   1 2.60   2 2.60   3 2.60   4 2.60   9 2.60  10 2.60  11 2.60  12 2.60

   8  0.750  0.750  0.750-   1 2.60   2 2.60   3 2.60   4 2.60   9 2.60  10 2.60  11 2.60  12 2.60

   9  0.500  0.000  0.000-   5 2.60   6 2.60   7 2.60   8 2.60  13 2.60  14 2.60  15 2.60  16 2.60

  10  0.000  0.500  0.000-   5 2.60   6 2.60   7 2.60   8 2.60  13 2.60  14 2.60  15 2.60  16 2.60

  11  0.000  0.000  0.500-   5 2.60   6 2.60   7 2.60   8 2.60  13 2.60  14 2.60  15 2.60  16 2.60

  12  0.500  0.500  0.500-   5 2.60   6 2.60   7 2.60   8 2.60  13 2.60  14 2.60  15 2.60  16 2.60

  13  0.250  0.250  0.250-   1 2.60   2 2.60   3 2.60   4 2.60   9 2.60  10 2.60  11 2.60  12 2.60

  14  0.750  0.250  0.750-   1 2.60   2 2.60   3 2.60   4 2.60   9 2.60  10 2.60  11 2.60  12 2.60

  15  0.250  0.750  0.750-   1 2.60   2 2.60   3 2.60   4 2.60   9 2.60  10 2.60  11 2.60  12 2.60

  16  0.750  0.750  0.250-   1 2.60   2 2.60   3 2.60   4 2.60   9 2.60  10 2.60  11 2.60  12 2.60

 
  LATTYP: Found a simple tetragonal cell.
 ALAT       =     6.0104618994
 C/A-ratio  =     0.9998268160
  
  Lattice vectors:
  
 A1 = (   6.0104618994,   0.0000000000,   0.0000000000)
 A2 = (   0.0000000000,   6.0104618994,   0.0000000000)
 A3 = (   0.0000000000,   0.0000000000,   6.0094209837)


Analysis of symmetry for initial positions (statically):
=====================================================================
 Subroutine PRICEL returns following result:
 
  LATTYP: Found a body centered tetragonal cell.
 ALAT       =     4.2500383671
 C/A-ratio  =     1.4139686432
  
  Lattice vectors:
  
 A1 = (   3.0052309497,   0.0000000000,   3.0047104918)
 A2 = (  -3.0052309497,   0.0000000000,   3.0047104918)
 A3 = (   0.0000000000,  -3.0052309497,  -3.0047104918)
 
   4 primitive cells build up your supercell.
 

 Routine SETGRP: Setting up the symmetry group for a 
 simple tetragonal supercell.


 Subroutine GETGRP returns: Found  8 space group operations
 (whereof  8 operations were pure point group operations)
 out of a pool of 16 trial point group operations.


The static configuration has the point symmetry D_2d.


Analysis of symmetry for dynamics (positions and initial velocities):
=====================================================================
 Subroutine PRICEL returns following result:
 
  LATTYP: Found a body centered tetragonal cell.
 ALAT       =     4.2500383671
 C/A-ratio  =     1.4139686432
  
  Lattice vectors:
  
 A1 = (   3.0052309497,   0.0000000000,   3.0047104918)
 A2 = (  -3.0052309497,   0.0000000000,   3.0047104918)
 A3 = (   0.0000000000,  -3.0052309497,  -3.0047104918)
 
   4 primitive cells build up your supercell.
 

 Routine SETGRP: Setting up the symmetry group for a 
 simple tetragonal supercell.


 Subroutine GETGRP returns: Found  8 space group operations
 (whereof  8 operations were pure point group operations)
 out of a pool of 16 trial point group operations.


The dynamic configuration has the point symmetry D_2d.


Analysis of structural, dynamic, and magnetic symmetry:
=====================================================================
 Subroutine PRICEL returns following result:
 
  LATTYP: Found a body centered tetragonal cell.
 ALAT       =     4.2500383671
 C/A-ratio  =     1.4139686432
  
  Lattice vectors:
  
 A1 = (   3.0052309497,   0.0000000000,   3.0047104918)
 A2 = (  -3.0052309497,   0.0000000000,   3.0047104918)
 A3 = (   0.0000000000,  -3.0052309497,  -3.0047104918)
 
   4 primitive cells build up your supercell.
 

 Routine SETGRP: Setting up the symmetry group for a 
 simple tetragonal supercell.


 Subroutine GETGRP returns: Found  8 space group operations
 (whereof  8 operations were pure point group operations)
 out of a pool of 16 trial point group operations.


The magnetic configuration has the point symmetry D_2d.


 Subroutine INISYM returns: Found  8 space group operations
 (whereof  8 operations are pure point group operations),
 and found     4 'primitive' translations


----------------------------------------------------------------------------------------

                                     Primitive cell                                     

  volume of cell :      54.2736

  direct lattice vectors                    reciprocal lattice vectors
     3.005230950  0.000000000  3.004710492     0.166376564 -0.166376564  0.166405383
    -3.005230950  0.000000000  3.004710492    -0.166376564 -0.166376564  0.166405383
     0.000000000 -3.005230950 -3.004710492     0.000000000 -0.332753128  0.000000000

  length of vectors
     4.249670364  4.249670364  4.249670364     0.288189302  0.288189302  0.332753128

  position of ions in fractional coordinates (direct lattice)
     0.000000000  0.000000000  0.000000000
     0.750000000  0.250000000  0.500000000
     0.500000000  0.500000000  0.000000000
     0.250000000  0.750000000  0.500000000

  ion indices of the primitive-cell ions
   primitive index   ion index
                 1           1
                 2           5
                 3           9
                 4          13

----------------------------------------------------------------------------------------

 
 
 KPOINTS: Ni7CoMn5CrSn2                           

Automatic generation of k-mesh.
Space group operators:
 irot       det(A)        alpha          n_x          n_y          n_z        tau_x        tau_y        tau_z
    1     1.000000     0.000000     1.000000     0.000000     0.000000     0.000000     0.000000     0.000000
    2    -1.000000    90.000000     0.000000     0.000000    -1.000000     0.000000     0.000000     0.000000
    3     1.000000   180.000000     0.000000     0.000000     1.000000     0.000000     0.000000     0.000000
    4    -1.000000    90.000000     0.000000     0.000000     1.000000     0.000000     0.000000     0.000000
    5     1.000000   180.000000     0.000000     1.000000     0.000000     0.000000     0.000000     0.000000
    6    -1.000000   180.000000     0.707107     0.707107     0.000000     0.000000     0.000000     0.000000
    7     1.000000   180.000000     1.000000     0.000000     0.000000     0.000000     0.000000     0.000000
    8    -1.000000   180.000000     0.707107    -0.707107     0.000000     0.000000     0.000000     0.000000
 
 Subroutine IBZKPT returns following result:
 ===========================================
 
 Found    288 irreducible k-points:
 
 Following reciprocal coordinates:
            Coordinates               Weight
  0.000000  0.000000  0.000000      1.000000
  0.066667  0.000000  0.000000      4.000000
  0.133333  0.000000  0.000000      4.000000
  0.200000  0.000000  0.000000      4.000000
  0.266667  0.000000  0.000000      4.000000
  0.333333  0.000000  0.000000      4.000000
  0.400000  0.000000  0.000000      4.000000
  0.466667  0.000000  0.000000      4.000000
  0.066667  0.066667  0.000000      4.000000
  0.133333  0.066667  0.000000      8.000000
  0.200000  0.066667  0.000000      8.000000
  0.266667  0.066667  0.000000      8.000000
  0.333333  0.066667  0.000000      8.000000
  0.400000  0.066667  0.000000      8.000000
  0.466667  0.066667  0.000000      8.000000
  0.133333  0.133333  0.000000      4.000000
  0.200000  0.133333  0.000000      8.000000
  0.266667  0.133333  0.000000      8.000000
  0.333333  0.133333  0.000000      8.000000
  0.400000  0.133333  0.000000      8.000000
  0.466667  0.133333  0.000000      8.000000
  0.200000  0.200000  0.000000      4.000000
  0.266667  0.200000  0.000000      8.000000
  0.333333  0.200000  0.000000      8.000000
  0.400000  0.200000  0.000000      8.000000
  0.466667  0.200000  0.000000      8.000000
  0.266667  0.266667  0.000000      4.000000
  0.333333  0.266667  0.000000      8.000000
  0.400000  0.266667  0.000000      8.000000
  0.466667  0.266667  0.000000      8.000000
  0.333333  0.333333  0.000000      4.000000
  0.400000  0.333333  0.000000      8.000000
  0.466667  0.333333  0.000000      8.000000
  0.400000  0.400000  0.000000      4.000000
  0.466667  0.400000  0.000000      8.000000
  0.466667  0.466667  0.000000      4.000000
  0.000000  0.000000  0.066667      2.000000
  0.066667  0.000000  0.066667      8.000000
  0.133333  0.000000  0.066667      8.000000
  0.200000  0.000000  0.066667      8.000000
  0.266667  0.000000  0.066667      8.000000
  0.333333  0.000000  0.066667      8.000000
  0.400000  0.000000  0.066667      8.000000
  0.466667  0.000000  0.066667      8.000000
  0.066667  0.066667  0.066667      8.000000
  0.133333  0.066667  0.066667     16.000000
  0.200000  0.066667  0.066667     16.000000
  0.266667  0.066667  0.066667     16.000000
  0.333333  0.066667  0.066667     16.000000
  0.400000  0.066667  0.066667     16.000000
  0.466667  0.066667  0.066667     16.000000
  0.133333  0.133333  0.066667      8.000000
  0.200000  0.133333  0.066667     16.000000
  0.266667  0.133333  0.066667     16.000000
  0.333333  0.133333  0.066667     16.000000
  0.400000  0.133333  0.066667     16.000000
  0.466667  0.133333  0.066667     16.000000
  0.200000  0.200000  0.066667      8.000000
  0.266667  0.200000  0.066667     16.000000
  0.333333  0.200000  0.066667     16.000000
  0.400000  0.200000  0.066667     16.000000
  0.466667  0.200000  0.066667     16.000000
  0.266667  0.266667  0.066667      8.000000
  0.333333  0.266667  0.066667     16.000000
  0.400000  0.266667  0.066667     16.000000
  0.466667  0.266667  0.066667     16.000000
  0.333333  0.333333  0.066667      8.000000
  0.400000  0.333333  0.066667     16.000000
  0.466667  0.333333  0.066667     16.000000
  0.400000  0.400000  0.066667      8.000000
  0.466667  0.400000  0.066667     16.000000
  0.466667  0.466667  0.066667      8.000000
  0.000000  0.000000  0.133333      2.000000
  0.066667  0.000000  0.133333      8.000000
  0.133333  0.000000  0.133333      8.000000
  0.200000  0.000000  0.133333      8.000000
  0.266667  0.000000  0.133333      8.000000
  0.333333  0.000000  0.133333      8.000000
  0.400000  0.000000  0.133333      8.000000
  0.466667  0.000000  0.133333      8.000000
  0.066667  0.066667  0.133333      8.000000
  0.133333  0.066667  0.133333     16.000000
  0.200000  0.066667  0.133333     16.000000
  0.266667  0.066667  0.133333     16.000000
  0.333333  0.066667  0.133333     16.000000
  0.400000  0.066667  0.133333     16.000000
  0.466667  0.066667  0.133333     16.000000
  0.133333  0.133333  0.133333      8.000000
  0.200000  0.133333  0.133333     16.000000
  0.266667  0.133333  0.133333     16.000000
  0.333333  0.133333  0.133333     16.000000
  0.400000  0.133333  0.133333     16.000000
  0.466667  0.133333  0.133333     16.000000
  0.200000  0.200000  0.133333      8.000000
  0.266667  0.200000  0.133333     16.000000
  0.333333  0.200000  0.133333     16.000000
  0.400000  0.200000  0.133333     16.000000
  0.466667  0.200000  0.133333     16.000000
  0.266667  0.266667  0.133333      8.000000
  0.333333  0.266667  0.133333     16.000000
  0.400000  0.266667  0.133333     16.000000
  0.466667  0.266667  0.133333     16.000000
  0.333333  0.333333  0.133333      8.000000
  0.400000  0.333333  0.133333     16.000000
  0.466667  0.333333  0.133333     16.000000
  0.400000  0.400000  0.133333      8.000000
  0.466667  0.400000  0.133333     16.000000
  0.466667  0.466667  0.133333      8.000000
  0.000000  0.000000  0.200000      2.000000
  0.066667  0.000000  0.200000      8.000000
  0.133333  0.000000  0.200000      8.000000
  0.200000  0.000000  0.200000      8.000000
  0.266667  0.000000  0.200000      8.000000
  0.333333  0.000000  0.200000      8.000000
  0.400000  0.000000  0.200000      8.000000
  0.466667  0.000000  0.200000      8.000000
  0.066667  0.066667  0.200000      8.000000
  0.133333  0.066667  0.200000     16.000000
  0.200000  0.066667  0.200000     16.000000
  0.266667  0.066667  0.200000     16.000000
  0.333333  0.066667  0.200000     16.000000
  0.400000  0.066667  0.200000     16.000000
  0.466667  0.066667  0.200000     16.000000
  0.133333  0.133333  0.200000      8.000000
  0.200000  0.133333  0.200000     16.000000
  0.266667  0.133333  0.200000     16.000000
  0.333333  0.133333  0.200000     16.000000
  0.400000  0.133333  0.200000     16.000000
  0.466667  0.133333  0.200000     16.000000
  0.200000  0.200000  0.200000      8.000000
  0.266667  0.200000  0.200000     16.000000
  0.333333  0.200000  0.200000     16.000000
  0.400000  0.200000  0.200000     16.000000
  0.466667  0.200000  0.200000     16.000000
  0.266667  0.266667  0.200000      8.000000
  0.333333  0.266667  0.200000     16.000000
  0.400000  0.266667  0.200000     16.000000
  0.466667  0.266667  0.200000     16.000000
  0.333333  0.333333  0.200000      8.000000
  0.400000  0.333333  0.200000     16.000000
  0.466667  0.333333  0.200000     16.000000
  0.400000  0.400000  0.200000      8.000000
  0.466667  0.400000  0.200000     16.000000
  0.466667  0.466667  0.200000      8.000000
  0.000000  0.000000  0.266667      2.000000
  0.066667  0.000000  0.266667      8.000000
  0.133333  0.000000  0.266667      8.000000
  0.200000  0.000000  0.266667      8.000000
  0.266667  0.000000  0.266667      8.000000
  0.333333  0.000000  0.266667      8.000000
  0.400000  0.000000  0.266667      8.000000
  0.466667  0.000000  0.266667      8.000000
  0.066667  0.066667  0.266667      8.000000
  0.133333  0.066667  0.266667     16.000000
  0.200000  0.066667  0.266667     16.000000
  0.266667  0.066667  0.266667     16.000000
  0.333333  0.066667  0.266667     16.000000
  0.400000  0.066667  0.266667     16.000000
  0.466667  0.066667  0.266667     16.000000
  0.133333  0.133333  0.266667      8.000000
  0.200000  0.133333  0.266667     16.000000
  0.266667  0.133333  0.266667     16.000000
  0.333333  0.133333  0.266667     16.000000
  0.400000  0.133333  0.266667     16.000000
  0.466667  0.133333  0.266667     16.000000
  0.200000  0.200000  0.266667      8.000000
  0.266667  0.200000  0.266667     16.000000
  0.333333  0.200000  0.266667     16.000000
  0.400000  0.200000  0.266667     16.000000
  0.466667  0.200000  0.266667     16.000000
  0.266667  0.266667  0.266667      8.000000
  0.333333  0.266667  0.266667     16.000000
  0.400000  0.266667  0.266667     16.000000
  0.466667  0.266667  0.266667     16.000000
  0.333333  0.333333  0.266667      8.000000
  0.400000  0.333333  0.266667     16.000000
  0.466667  0.333333  0.266667     16.000000
  0.400000  0.400000  0.266667      8.000000
  0.466667  0.400000  0.266667     16.000000
  0.466667  0.466667  0.266667      8.000000
  0.000000  0.000000  0.333333      2.000000
  0.066667  0.000000  0.333333      8.000000
  0.133333  0.000000  0.333333      8.000000
  0.200000  0.000000  0.333333      8.000000
  0.266667  0.000000  0.333333      8.000000
  0.333333  0.000000  0.333333      8.000000
  0.400000  0.000000  0.333333      8.000000
  0.466667  0.000000  0.333333      8.000000
  0.066667  0.066667  0.333333      8.000000
  0.133333  0.066667  0.333333     16.000000
  0.200000  0.066667  0.333333     16.000000
  0.266667  0.066667  0.333333     16.000000
  0.333333  0.066667  0.333333     16.000000
  0.400000  0.066667  0.333333     16.000000
  0.466667  0.066667  0.333333     16.000000
  0.133333  0.133333  0.333333      8.000000
  0.200000  0.133333  0.333333     16.000000
  0.266667  0.133333  0.333333     16.000000
  0.333333  0.133333  0.333333     16.000000
  0.400000  0.133333  0.333333     16.000000
  0.466667  0.133333  0.333333     16.000000
  0.200000  0.200000  0.333333      8.000000
  0.266667  0.200000  0.333333     16.000000
  0.333333  0.200000  0.333333     16.000000
  0.400000  0.200000  0.333333     16.000000
  0.466667  0.200000  0.333333     16.000000
  0.266667  0.266667  0.333333      8.000000
  0.333333  0.266667  0.333333     16.000000
  0.400000  0.266667  0.333333     16.000000
  0.466667  0.266667  0.333333     16.000000
  0.333333  0.333333  0.333333      8.000000
  0.400000  0.333333  0.333333     16.000000
  0.466667  0.333333  0.333333     16.000000
  0.400000  0.400000  0.333333      8.000000
  0.466667  0.400000  0.333333     16.000000
  0.466667  0.466667  0.333333      8.000000
  0.000000  0.000000  0.400000      2.000000
  0.066667  0.000000  0.400000      8.000000
  0.133333  0.000000  0.400000      8.000000
  0.200000  0.000000  0.400000      8.000000
  0.266667  0.000000  0.400000      8.000000
  0.333333  0.000000  0.400000      8.000000
  0.400000  0.000000  0.400000      8.000000
  0.466667  0.000000  0.400000      8.000000
  0.066667  0.066667  0.400000      8.000000
  0.133333  0.066667  0.400000     16.000000
  0.200000  0.066667  0.400000     16.000000
  0.266667  0.066667  0.400000     16.000000
  0.333333  0.066667  0.400000     16.000000
  0.400000  0.066667  0.400000     16.000000
  0.466667  0.066667  0.400000     16.000000
  0.133333  0.133333  0.400000      8.000000
  0.200000  0.133333  0.400000     16.000000
  0.266667  0.133333  0.400000     16.000000
  0.333333  0.133333  0.400000     16.000000
  0.400000  0.133333  0.400000     16.000000
  0.466667  0.133333  0.400000     16.000000
  0.200000  0.200000  0.400000      8.000000
  0.266667  0.200000  0.400000     16.000000
  0.333333  0.200000  0.400000     16.000000
  0.400000  0.200000  0.400000     16.000000
  0.466667  0.200000  0.400000     16.000000
  0.266667  0.266667  0.400000      8.000000
  0.333333  0.266667  0.400000     16.000000
  0.400000  0.266667  0.400000     16.000000
  0.466667  0.266667  0.400000     16.000000
  0.333333  0.333333  0.400000      8.000000
  0.400000  0.333333  0.400000     16.000000
  0.466667  0.333333  0.400000     16.000000
  0.400000  0.400000  0.400000      8.000000
  0.466667  0.400000  0.400000     16.000000
  0.466667  0.466667  0.400000      8.000000
  0.000000  0.000000  0.466667      2.000000
  0.066667  0.000000  0.466667      8.000000
  0.133333  0.000000  0.466667      8.000000
  0.200000  0.000000  0.466667      8.000000
  0.266667  0.000000  0.466667      8.000000
  0.333333  0.000000  0.466667      8.000000
  0.400000  0.000000  0.466667      8.000000
  0.466667  0.000000  0.466667      8.000000
  0.066667  0.066667  0.466667      8.000000
  0.133333  0.066667  0.466667     16.000000
  0.200000  0.066667  0.466667     16.000000
  0.266667  0.066667  0.466667     16.000000
  0.333333  0.066667  0.466667     16.000000
  0.400000  0.066667  0.466667     16.000000
  0.466667  0.066667  0.466667     16.000000
  0.133333  0.133333  0.466667      8.000000
  0.200000  0.133333  0.466667     16.000000
  0.266667  0.133333  0.466667     16.000000
  0.333333  0.133333  0.466667     16.000000
  0.400000  0.133333  0.466667     16.000000
  0.466667  0.133333  0.466667     16.000000
  0.200000  0.200000  0.466667      8.000000
  0.266667  0.200000  0.466667     16.000000
  0.333333  0.200000  0.466667     16.000000
  0.400000  0.200000  0.466667     16.000000
  0.466667  0.200000  0.466667     16.000000
  0.266667  0.266667  0.466667      8.000000
  0.333333  0.266667  0.466667     16.000000
  0.400000  0.266667  0.466667     16.000000
  0.466667  0.266667  0.466667     16.000000
  0.333333  0.333333  0.466667      8.000000
  0.400000  0.333333  0.466667     16.000000
  0.466667  0.333333  0.466667     16.000000
  0.400000  0.400000  0.466667      8.000000
  0.466667  0.400000  0.466667     16.000000
  0.466667  0.466667  0.466667      8.000000
 
 Following cartesian coordinates:
            Coordinates               Weight
  0.000000  0.000000  0.000000      1.000000
  0.067105  0.000000  0.000000      4.000000
  0.134210  0.000000  0.000000      4.000000
  0.201316  0.000000  0.000000      4.000000
  0.268421  0.000000  0.000000      4.000000
  0.335526  0.000000  0.000000      4.000000
  0.402631  0.000000  0.000000      4.000000
  0.469736  0.000000  0.000000      4.000000
  0.067105  0.067105  0.000000      4.000000
  0.134210  0.067105  0.000000      8.000000
  0.201316  0.067105  0.000000      8.000000
  0.268421  0.067105  0.000000      8.000000
  0.335526  0.067105  0.000000      8.000000
  0.402631  0.067105  0.000000      8.000000
  0.469736  0.067105  0.000000      8.000000
  0.134210  0.134210  0.000000      4.000000
  0.201316  0.134210  0.000000      8.000000
  0.268421  0.134210  0.000000      8.000000
  0.335526  0.134210  0.000000      8.000000
  0.402631  0.134210  0.000000      8.000000
  0.469736  0.134210  0.000000      8.000000
  0.201316  0.201316  0.000000      4.000000
  0.268421  0.201316  0.000000      8.000000
  0.335526  0.201316  0.000000      8.000000
  0.402631  0.201316  0.000000      8.000000
  0.469736  0.201316  0.000000      8.000000
  0.268421  0.268421  0.000000      4.000000
  0.335526  0.268421  0.000000      8.000000
  0.402631  0.268421  0.000000      8.000000
  0.469736  0.268421  0.000000      8.000000
  0.335526  0.335526  0.000000      4.000000
  0.402631  0.335526  0.000000      8.000000
  0.469736  0.335526  0.000000      8.000000
  0.402631  0.402631  0.000000      4.000000
  0.469736  0.402631  0.000000      8.000000
  0.469736  0.469736  0.000000      4.000000
  0.000000  0.000000  0.067117      2.000000
  0.067105  0.000000  0.067117      8.000000
  0.134210  0.000000  0.067117      8.000000
  0.201316  0.000000  0.067117      8.000000
  0.268421  0.000000  0.067117      8.000000
  0.335526  0.000000  0.067117      8.000000
  0.402631  0.000000  0.067117      8.000000
  0.469736  0.000000  0.067117      8.000000
  0.067105  0.067105  0.067117      8.000000
  0.134210  0.067105  0.067117     16.000000
  0.201316  0.067105  0.067117     16.000000
  0.268421  0.067105  0.067117     16.000000
  0.335526  0.067105  0.067117     16.000000
  0.402631  0.067105  0.067117     16.000000
  0.469736  0.067105  0.067117     16.000000
  0.134210  0.134210  0.067117      8.000000
  0.201316  0.134210  0.067117     16.000000
  0.268421  0.134210  0.067117     16.000000
  0.335526  0.134210  0.067117     16.000000
  0.402631  0.134210  0.067117     16.000000
  0.469736  0.134210  0.067117     16.000000
  0.201316  0.201316  0.067117      8.000000
  0.268421  0.201316  0.067117     16.000000
  0.335526  0.201316  0.067117     16.000000
  0.402631  0.201316  0.067117     16.000000
  0.469736  0.201316  0.067117     16.000000
  0.268421  0.268421  0.067117      8.000000
  0.335526  0.268421  0.067117     16.000000
  0.402631  0.268421  0.067117     16.000000
  0.469736  0.268421  0.067117     16.000000
  0.335526  0.335526  0.067117      8.000000
  0.402631  0.335526  0.067117     16.000000
  0.469736  0.335526  0.067117     16.000000
  0.402631  0.402631  0.067117      8.000000
  0.469736  0.402631  0.067117     16.000000
  0.469736  0.469736  0.067117      8.000000
  0.000000  0.000000  0.134234      2.000000
  0.067105  0.000000  0.134234      8.000000
  0.134210  0.000000  0.134234      8.000000
  0.201316  0.000000  0.134234      8.000000
  0.268421  0.000000  0.134234      8.000000
  0.335526  0.000000  0.134234      8.000000
  0.402631  0.000000  0.134234      8.000000
  0.469736  0.000000  0.134234      8.000000
  0.067105  0.067105  0.134234      8.000000
  0.134210  0.067105  0.134234     16.000000
  0.201316  0.067105  0.134234     16.000000
  0.268421  0.067105  0.134234     16.000000
  0.335526  0.067105  0.134234     16.000000
  0.402631  0.067105  0.134234     16.000000
  0.469736  0.067105  0.134234     16.000000
  0.134210  0.134210  0.134234      8.000000
  0.201316  0.134210  0.134234     16.000000
  0.268421  0.134210  0.134234     16.000000
  0.335526  0.134210  0.134234     16.000000
  0.402631  0.134210  0.134234     16.000000
  0.469736  0.134210  0.134234     16.000000
  0.201316  0.201316  0.134234      8.000000
  0.268421  0.201316  0.134234     16.000000
  0.335526  0.201316  0.134234     16.000000
  0.402631  0.201316  0.134234     16.000000
  0.469736  0.201316  0.134234     16.000000
  0.268421  0.268421  0.134234      8.000000
  0.335526  0.268421  0.134234     16.000000
  0.402631  0.268421  0.134234     16.000000
  0.469736  0.268421  0.134234     16.000000
  0.335526  0.335526  0.134234      8.000000
  0.402631  0.335526  0.134234     16.000000
  0.469736  0.335526  0.134234     16.000000
  0.402631  0.402631  0.134234      8.000000
  0.469736  0.402631  0.134234     16.000000
  0.469736  0.469736  0.134234      8.000000
  0.000000  0.000000  0.201351      2.000000
  0.067105  0.000000  0.201351      8.000000
  0.134210  0.000000  0.201351      8.000000
  0.201316  0.000000  0.201351      8.000000
  0.268421  0.000000  0.201351      8.000000
  0.335526  0.000000  0.201351      8.000000
  0.402631  0.000000  0.201351      8.000000
  0.469736  0.000000  0.201351      8.000000
  0.067105  0.067105  0.201351      8.000000
  0.134210  0.067105  0.201351     16.000000
  0.201316  0.067105  0.201351     16.000000
  0.268421  0.067105  0.201351     16.000000
  0.335526  0.067105  0.201351     16.000000
  0.402631  0.067105  0.201351     16.000000
  0.469736  0.067105  0.201351     16.000000
  0.134210  0.134210  0.201351      8.000000
  0.201316  0.134210  0.201351     16.000000
  0.268421  0.134210  0.201351     16.000000
  0.335526  0.134210  0.201351     16.000000
  0.402631  0.134210  0.201351     16.000000
  0.469736  0.134210  0.201351     16.000000
  0.201316  0.201316  0.201351      8.000000
  0.268421  0.201316  0.201351     16.000000
  0.335526  0.201316  0.201351     16.000000
  0.402631  0.201316  0.201351     16.000000
  0.469736  0.201316  0.201351     16.000000
  0.268421  0.268421  0.201351      8.000000
  0.335526  0.268421  0.201351     16.000000
  0.402631  0.268421  0.201351     16.000000
  0.469736  0.268421  0.201351     16.000000
  0.335526  0.335526  0.201351      8.000000
  0.402631  0.335526  0.201351     16.000000
  0.469736  0.335526  0.201351     16.000000
  0.402631  0.402631  0.201351      8.000000
  0.469736  0.402631  0.201351     16.000000
  0.469736  0.469736  0.201351      8.000000
  0.000000  0.000000  0.268467      2.000000
  0.067105  0.000000  0.268467      8.000000
  0.134210  0.000000  0.268467      8.000000
  0.201316  0.000000  0.268467      8.000000
  0.268421  0.000000  0.268467      8.000000
  0.335526  0.000000  0.268467      8.000000
  0.402631  0.000000  0.268467      8.000000
  0.469736  0.000000  0.268467      8.000000
  0.067105  0.067105  0.268467      8.000000
  0.134210  0.067105  0.268467     16.000000
  0.201316  0.067105  0.268467     16.000000
  0.268421  0.067105  0.268467     16.000000
  0.335526  0.067105  0.268467     16.000000
  0.402631  0.067105  0.268467     16.000000
  0.469736  0.067105  0.268467     16.000000
  0.134210  0.134210  0.268467      8.000000
  0.201316  0.134210  0.268467     16.000000
  0.268421  0.134210  0.268467     16.000000
  0.335526  0.134210  0.268467     16.000000
  0.402631  0.134210  0.268467     16.000000
  0.469736  0.134210  0.268467     16.000000
  0.201316  0.201316  0.268467      8.000000
  0.268421  0.201316  0.268467     16.000000
  0.335526  0.201316  0.268467     16.000000
  0.402631  0.201316  0.268467     16.000000
  0.469736  0.201316  0.268467     16.000000
  0.268421  0.268421  0.268467      8.000000
  0.335526  0.268421  0.268467     16.000000
  0.402631  0.268421  0.268467     16.000000
  0.469736  0.268421  0.268467     16.000000
  0.335526  0.335526  0.268467      8.000000
  0.402631  0.335526  0.268467     16.000000
  0.469736  0.335526  0.268467     16.000000
  0.402631  0.402631  0.268467      8.000000
  0.469736  0.402631  0.268467     16.000000
  0.469736  0.469736  0.268467      8.000000
  0.000000  0.000000  0.335584      2.000000
  0.067105  0.000000  0.335584      8.000000
  0.134210  0.000000  0.335584      8.000000
  0.201316  0.000000  0.335584      8.000000
  0.268421  0.000000  0.335584      8.000000
  0.335526  0.000000  0.335584      8.000000
  0.402631  0.000000  0.335584      8.000000
  0.469736  0.000000  0.335584      8.000000
  0.067105  0.067105  0.335584      8.000000
  0.134210  0.067105  0.335584     16.000000
  0.201316  0.067105  0.335584     16.000000
  0.268421  0.067105  0.335584     16.000000
  0.335526  0.067105  0.335584     16.000000
  0.402631  0.067105  0.335584     16.000000
  0.469736  0.067105  0.335584     16.000000
  0.134210  0.134210  0.335584      8.000000
  0.201316  0.134210  0.335584     16.000000
  0.268421  0.134210  0.335584     16.000000
  0.335526  0.134210  0.335584     16.000000
  0.402631  0.134210  0.335584     16.000000
  0.469736  0.134210  0.335584     16.000000
  0.201316  0.201316  0.335584      8.000000
  0.268421  0.201316  0.335584     16.000000
  0.335526  0.201316  0.335584     16.000000
  0.402631  0.201316  0.335584     16.000000
  0.469736  0.201316  0.335584     16.000000
  0.268421  0.268421  0.335584      8.000000
  0.335526  0.268421  0.335584     16.000000
  0.402631  0.268421  0.335584     16.000000
  0.469736  0.268421  0.335584     16.000000
  0.335526  0.335526  0.335584      8.000000
  0.402631  0.335526  0.335584     16.000000
  0.469736  0.335526  0.335584     16.000000
  0.402631  0.402631  0.335584      8.000000
  0.469736  0.402631  0.335584     16.000000
  0.469736  0.469736  0.335584      8.000000
  0.000000  0.000000  0.402701      2.000000
  0.067105  0.000000  0.402701      8.000000
  0.134210  0.000000  0.402701      8.000000
  0.201316  0.000000  0.402701      8.000000
  0.268421  0.000000  0.402701      8.000000
  0.335526  0.000000  0.402701      8.000000
  0.402631  0.000000  0.402701      8.000000
  0.469736  0.000000  0.402701      8.000000
  0.067105  0.067105  0.402701      8.000000
  0.134210  0.067105  0.402701     16.000000
  0.201316  0.067105  0.402701     16.000000
  0.268421  0.067105  0.402701     16.000000
  0.335526  0.067105  0.402701     16.000000
  0.402631  0.067105  0.402701     16.000000
  0.469736  0.067105  0.402701     16.000000
  0.134210  0.134210  0.402701      8.000000
  0.201316  0.134210  0.402701     16.000000
  0.268421  0.134210  0.402701     16.000000
  0.335526  0.134210  0.402701     16.000000
  0.402631  0.134210  0.402701     16.000000
  0.469736  0.134210  0.402701     16.000000
  0.201316  0.201316  0.402701      8.000000
  0.268421  0.201316  0.402701     16.000000
  0.335526  0.201316  0.402701     16.000000
  0.402631  0.201316  0.402701     16.000000
  0.469736  0.201316  0.402701     16.000000
  0.268421  0.268421  0.402701      8.000000
  0.335526  0.268421  0.402701     16.000000
  0.402631  0.268421  0.402701     16.000000
  0.469736  0.268421  0.402701     16.000000
  0.335526  0.335526  0.402701      8.000000
  0.402631  0.335526  0.402701     16.000000
  0.469736  0.335526  0.402701     16.000000
  0.402631  0.402631  0.402701      8.000000
  0.469736  0.402631  0.402701     16.000000
  0.469736  0.469736  0.402701      8.000000
  0.000000  0.000000  0.469818      2.000000
  0.067105  0.000000  0.469818      8.000000
  0.134210  0.000000  0.469818      8.000000
  0.201316  0.000000  0.469818      8.000000
  0.268421  0.000000  0.469818      8.000000
  0.335526  0.000000  0.469818      8.000000
  0.402631  0.000000  0.469818      8.000000
  0.469736  0.000000  0.469818      8.000000
  0.067105  0.067105  0.469818      8.000000
  0.134210  0.067105  0.469818     16.000000
  0.201316  0.067105  0.469818     16.000000
  0.268421  0.067105  0.469818     16.000000
  0.335526  0.067105  0.469818     16.000000
  0.402631  0.067105  0.469818     16.000000
  0.469736  0.067105  0.469818     16.000000
  0.134210  0.134210  0.469818      8.000000
  0.201316  0.134210  0.469818     16.000000
  0.268421  0.134210  0.469818     16.000000
  0.335526  0.134210  0.469818     16.000000
  0.402631  0.134210  0.469818     16.000000
  0.469736  0.134210  0.469818     16.000000
  0.201316  0.201316  0.469818      8.000000
  0.268421  0.201316  0.469818     16.000000
  0.335526  0.201316  0.469818     16.000000
  0.402631  0.201316  0.469818     16.000000
  0.469736  0.201316  0.469818     16.000000
  0.268421  0.268421  0.469818      8.000000
  0.335526  0.268421  0.469818     16.000000
  0.402631  0.268421  0.469818     16.000000
  0.469736  0.268421  0.469818     16.000000
  0.335526  0.335526  0.469818      8.000000
  0.402631  0.335526  0.469818     16.000000
  0.469736  0.335526  0.469818     16.000000
  0.402631  0.402631  0.469818      8.000000
  0.469736  0.402631  0.469818     16.000000
  0.469736  0.469736  0.469818      8.000000
 


--------------------------------------------------------------------------------------------------------




 Dimension of arrays:
   k-points           NKPTS =    288   k-points in BZ     NKDIM =    288   number of bands    NBANDS=    128
   number of dos      NEDOS =   1500   number of ions     NIONS =     16
   non local maximal  LDIM  =      6   non local SUM 2l+1 LMDIM =     18
   total plane-waves  NPLWV = 110592
   max r-space proj   IRMAX =   9801   max aug-charges    IRDMAX= 459890
   dimension x,y,z NGX =    48 NGY =   48 NGZ =   48
   dimension x,y,z NGXF=    96 NGYF=   96 NGZF=   96
   support grid    NGXF=   192 NGYF=  192 NGZF=  192
   ions per type =               8   4   4
   NGX,Y,Z   is equivalent  to a cutoff of  13.28, 13.28, 13.28 a.u.
   NGXF,Y,Z  is equivalent  to a cutoff of  26.55, 26.55, 26.56 a.u.

 SYSTEM =  NiCoMnGa                                
 POSCAR =  Heusler tetragonGa                      

 Startparameter for this run:
   NWRITE =      2    write-flag & timer
   PREC   = accura    normal or accurate (medium, high low for compatibility)
   ISTART =      0    job   : 0-new  1-cont  2-samecut
   ICHARG =      2    charge: 1-file 2-atom 10-const
   ISPIN  =      2    spin polarized calculation?
   LNONCOLLINEAR =      F non collinear calculations
   LSORBIT =      F    spin-orbit coupling
   INIWAV =      1    electr: 0-lowe 1-rand  2-diag
   LASPH  =      F    aspherical Exc in radial PAW
   METAGGA=      F    non-selfconsistent MetaGGA calc.

 Electronic Relaxation 1
   ENCUT  =  500.0 eV  36.75 Ry    6.06 a.u.  10.96 10.96 10.96*2*pi/ulx,y,z
   ENINI  =  500.0     initial cutoff
   ENAUG  =  578.3 eV  augmentation charge cutoff
   NELM   =    160;   NELMIN=  2; NELMDL= -6     # of ELM steps 
   EDIFF  = 0.1E-05   stopping-criterion for ELM
   LREAL  =      T    real-space projection
   NLSPLINE    = F    spline interpolate recip. space projectors
   LCOMPAT=      F    compatible to vasp.4.4
   GGA_COMPAT  = T    GGA compatible to vasp.4.4-vasp.4.6
   LMAXPAW     = -100 max onsite density
   LMAXMIX     =    6 max onsite mixed and CHGCAR
   VOSKOWN=      0    Vosko Wilk Nusair interpolation
   ROPT   =   -0.00025  -0.00025  -0.00025
 Ionic relaxation
   EDIFFG = -.1E-02   stopping-criterion for IOM
   NSW    =      0    number of steps for IOM
   NBLOCK =      1;   KBLOCK =      1    inner block; outer block 
   IBRION =     -1    ionic relax: 0-MD 1-quasi-New 2-CG
   NFREE  =      1    steps in history (QN), initial steepest desc. (CG)
   ISIF   =      3    stress and relaxation
   IWAVPR =     10    prediction:  0-non 1-charg 2-wave 3-comb
   ISYM   =      2    0-nonsym 1-usesym 2-fastsym
   LCORR  =      T    Harris-Foulkes like correction to forces

   POTIM  = 0.0050    time-step for ionic-motion
   TEIN   =    0.0    initial temperature
   TEBEG  =    0.0;   TEEND  =   0.0 temperature during run
   SMASS  =  -3.00    Nose mass-parameter (am)
   estimated Nose-frequenzy (Omega)   =  0.10E-29 period in steps = 0.13E+49 mass=  -0.826E-27a.u.
   SCALEE = 1.0000    scale energy and forces
   NPACO  =    256;   APACO  = 16.0  distance and # of slots for P.C.
   PSTRESS=    0.0 pullay stress

  Mass of Ions in am
   POMASS =  55.85 58.93114.82
  Ionic Valenz
   ZVAL   =  14.00 15.00  3.00
  Atomic Wigner-Seitz radii
   RWIGS  =   1.16  1.16  1.16
  virtual crystal weights 
   VCA    =   1.00  1.00  1.00
   NELECT =     184.0000    total number of electrons
   NUPDOWN=      -1.0000    fix difference up-down

 DOS related values:
   EMIN   =  10.00;   EMAX   =-10.00  energy-range for DOS
   EFERMI =   0.00
   ISMEAR =     1;   SIGMA  =   0.10  broadening in eV -4-tet -1-fermi 0-gaus

 Electronic relaxation 2 (details)
   IALGO  =     38    algorithm
   LDIAG  =      T    sub-space diagonalisation (order eigenvalues)
   LSUBROT=      F    optimize rotation matrix (better conditioning)
   TURBO    =      0    0=normal 1=particle mesh
   IRESTART =      0    0=no restart 2=restart with 2 vectors
   NREBOOT  =      0    no. of reboots
   NMIN     =      0    reboot dimension
   EREF     =   0.00    reference energy to select bands
   IMIX   =      4    mixing-type and parameters
     AMIX     =   0.18;   BMIX     =  0.00
     AMIX_MAG =   0.26;   BMIX_MAG =  0.01
     AMIN     =   0.10
     WC   =   100.;   INIMIX=   1;  MIXPRE=   1;  MAXMIX= -45

 Intra band minimization:
   WEIMIN = 0.0000     energy-eigenvalue tresh-hold
   EBREAK =  0.20E-08  absolut break condition
   DEPER  =   0.30     relativ break condition  

   TIME   =   0.40     timestep for ELM

  volume/ion in A,a.u.               =      13.57        91.56
  Fermi-wavevector in a.u.,A,eV,Ry     =   1.549285  2.927724 32.657849  2.400284
  Thomas-Fermi vector in A             =   2.654114
 
 Write flags
   LWAVE        =      F    write WAVECAR
   LDOWNSAMPLE  =      F    k-point downsampling of WAVECAR
   LCHARG       =      T    write CHGCAR
   LVTOT        =      F    write LOCPOT, total local potential
   LVHAR        =      F    write LOCPOT, Hartree potential only
   LELF         =      F    write electronic localiz. function (ELF)
   LORBIT       =     10    0 simple, 1 ext, 2 COOP (PROOUT), +10 PAW based schemes


 Dipole corrections
   LMONO  =      F    monopole corrections only (constant potential shift)
   LDIPOL =      F    correct potential (dipole corrections)
   IDIPOL =      0    1-x, 2-y, 3-z, 4-all directions 
   EPSILON=  1.0000000 bulk dielectric constant

 Exchange correlation treatment:
   GGA     =    --    GGA type
   LEXCH   =     8    internal setting for exchange type
   VOSKOWN=      0    Vosko Wilk Nusair interpolation
   LHFCALC =     F    Hartree Fock is set to
   LHFONE  =     F    Hartree Fock one center treatment
   AEXX    =    0.0000 exact exchange contribution

 Linear response parameters
   LEPSILON=     F    determine dielectric tensor
   LRPA    =     F    only Hartree local field effects (RPA)
   LNABLA  =     F    use nabla operator in PAW spheres
   LVEL    =     F    velocity operator in full k-point grid
   LINTERFAST=   F  fast interpolation
   KINTER  =     0    interpolate to denser k-point grid
   CSHIFT  =0.1000    complex shift for real part using Kramers Kronig
   OMEGAMAX=  -1.0    maximum frequency
   DEG_THRESHOLD= 0.2000000E-02 threshold for treating states as degnerate
   RTIME   =   -0.100 relaxation time in fs
  (WPLASMAI=    0.000 imaginary part of plasma frequency in eV, 0.658/RTIME)
   DFIELD  = 0.0000000 0.0000000 0.0000000 field for delta impulse in time
 
 Orbital magnetization related:
   ORBITALMAG=     F  switch on orbital magnetization
   LCHIMAG   =     F  perturbation theory with respect to B field
   DQ        =  0.001000  dq finite difference perturbation B field
   LLRAUG    =     F  two centre corrections for induced B field



--------------------------------------------------------------------------------------------------------


 Static calculation
 charge density and potential will be updated during run
 spin polarized calculation
 Variant of blocked Davidson
 Davidson routine will perform the subspace rotation
 perform sub-space diagonalisation
    after iterative eigenvector-optimisation
 modified Broyden-mixing scheme, WC =      100.0
 initial mixing is a Kerker type mixing with AMIX =  0.1800 and BMIX =      0.0025
 Hartree-type preconditioning will be used
 using additional bands           36
 real space projection scheme for non local part
 use partial core corrections
 calculate Harris-corrections to forces 
   (improved forces if not selfconsistent)
 use gradient corrections 
 use of overlap-Matrix (Vanderbilt PP)
 Methfessel and Paxton  Order N= 1 SIGMA  =   0.10


--------------------------------------------------------------------------------------------------------


  energy-cutoff  :      500.00
  volume of cell :      217.09
      direct lattice vectors                 reciprocal lattice vectors
     6.010461899  0.000000000  0.000000000     0.166376564  0.000000000  0.000000000
     0.000000000  6.010461899  0.000000000     0.000000000  0.166376564  0.000000000
     0.000000000  0.000000000  6.009420984     0.000000000  0.000000000  0.166405383

  length of vectors
     6.010461899  6.010461899  6.009420984     0.166376564  0.166376564  0.166405383


 
 k-points in units of 2pi/SCALE and weight: Ni7CoMn5CrSn2                           
   0.00000000  0.00000000  0.00000000       0.000
   0.06710521  0.00000000  0.00000000       0.001
   0.13421043  0.00000000  0.00000000       0.001
   0.20131564  0.00000000  0.00000000       0.001
   0.26842086  0.00000000  0.00000000       0.001
   0.33552607  0.00000000  0.00000000       0.001
   0.40263129  0.00000000  0.00000000       0.001
   0.46973650  0.00000000  0.00000000       0.001
   0.06710521  0.06710521  0.00000000       0.001
   0.13421043  0.06710521  0.00000000       0.002
   0.20131564  0.06710521  0.00000000       0.002
   0.26842086  0.06710521  0.00000000       0.002
   0.33552607  0.06710521  0.00000000       0.002
   0.40263129  0.06710521  0.00000000       0.002
   0.46973650  0.06710521  0.00000000       0.002
   0.13421043  0.13421043  0.00000000       0.001
   0.20131564  0.13421043  0.00000000       0.002
   0.26842086  0.13421043  0.00000000       0.002
   0.33552607  0.13421043  0.00000000       0.002
   0.40263129  0.13421043  0.00000000       0.002
   0.46973650  0.13421043  0.00000000       0.002
   0.20131564  0.20131564  0.00000000       0.001
   0.26842086  0.20131564  0.00000000       0.002
   0.33552607  0.20131564  0.00000000       0.002
   0.40263129  0.20131564  0.00000000       0.002
   0.46973650  0.20131564  0.00000000       0.002
   0.26842086  0.26842086  0.00000000       0.001
   0.33552607  0.26842086  0.00000000       0.002
   0.40263129  0.26842086  0.00000000       0.002
   0.46973650  0.26842086  0.00000000       0.002
   0.33552607  0.33552607  0.00000000       0.001
   0.40263129  0.33552607  0.00000000       0.002
   0.46973650  0.33552607  0.00000000       0.002
   0.40263129  0.40263129  0.00000000       0.001
   0.46973650  0.40263129  0.00000000       0.002
   0.46973650  0.46973650  0.00000000       0.001
   0.00000000  0.00000000  0.06711684       0.001
   0.06710521  0.00000000  0.06711684       0.002
   0.13421043  0.00000000  0.06711684       0.002
   0.20131564  0.00000000  0.06711684       0.002
   0.26842086  0.00000000  0.06711684       0.002
   0.33552607  0.00000000  0.06711684       0.002
   0.40263129  0.00000000  0.06711684       0.002
   0.46973650  0.00000000  0.06711684       0.002
   0.06710521  0.06710521  0.06711684       0.002
   0.13421043  0.06710521  0.06711684       0.005
   0.20131564  0.06710521  0.06711684       0.005
   0.26842086  0.06710521  0.06711684       0.005
   0.33552607  0.06710521  0.06711684       0.005
   0.40263129  0.06710521  0.06711684       0.005
   0.46973650  0.06710521  0.06711684       0.005
   0.13421043  0.13421043  0.06711684       0.002
   0.20131564  0.13421043  0.06711684       0.005
   0.26842086  0.13421043  0.06711684       0.005
   0.33552607  0.13421043  0.06711684       0.005
   0.40263129  0.13421043  0.06711684       0.005
   0.46973650  0.13421043  0.06711684       0.005
   0.20131564  0.20131564  0.06711684       0.002
   0.26842086  0.20131564  0.06711684       0.005
   0.33552607  0.20131564  0.06711684       0.005
   0.40263129  0.20131564  0.06711684       0.005
   0.46973650  0.20131564  0.06711684       0.005
   0.26842086  0.26842086  0.06711684       0.002
   0.33552607  0.26842086  0.06711684       0.005
   0.40263129  0.26842086  0.06711684       0.005
   0.46973650  0.26842086  0.06711684       0.005
   0.33552607  0.33552607  0.06711684       0.002
   0.40263129  0.33552607  0.06711684       0.005
   0.46973650  0.33552607  0.06711684       0.005
   0.40263129  0.40263129  0.06711684       0.002
   0.46973650  0.40263129  0.06711684       0.005
   0.46973650  0.46973650  0.06711684       0.002
   0.00000000  0.00000000  0.13423368       0.001
   0.06710521  0.00000000  0.13423368       0.002
   0.13421043  0.00000000  0.13423368       0.002
   0.20131564  0.00000000  0.13423368       0.002
   0.26842086  0.00000000  0.13423368       0.002
   0.33552607  0.00000000  0.13423368       0.002
   0.40263129  0.00000000  0.13423368       0.002
   0.46973650  0.00000000  0.13423368       0.002
   0.06710521  0.06710521  0.13423368       0.002
   0.13421043  0.06710521  0.13423368       0.005
   0.20131564  0.06710521  0.13423368       0.005
   0.26842086  0.06710521  0.13423368       0.005
   0.33552607  0.06710521  0.13423368       0.005
   0.40263129  0.06710521  0.13423368       0.005
   0.46973650  0.06710521  0.13423368       0.005
   0.13421043  0.13421043  0.13423368       0.002
   0.20131564  0.13421043  0.13423368       0.005
   0.26842086  0.13421043  0.13423368       0.005
   0.33552607  0.13421043  0.13423368       0.005
   0.40263129  0.13421043  0.13423368       0.005
   0.46973650  0.13421043  0.13423368       0.005
   0.20131564  0.20131564  0.13423368       0.002
   0.26842086  0.20131564  0.13423368       0.005
   0.33552607  0.20131564  0.13423368       0.005
   0.40263129  0.20131564  0.13423368       0.005
   0.46973650  0.20131564  0.13423368       0.005
   0.26842086  0.26842086  0.13423368       0.002
   0.33552607  0.26842086  0.13423368       0.005
   0.40263129  0.26842086  0.13423368       0.005
   0.46973650  0.26842086  0.13423368       0.005
   0.33552607  0.33552607  0.13423368       0.002
   0.40263129  0.33552607  0.13423368       0.005
   0.46973650  0.33552607  0.13423368       0.005
   0.40263129  0.40263129  0.13423368       0.002
   0.46973650  0.40263129  0.13423368       0.005
   0.46973650  0.46973650  0.13423368       0.002
   0.00000000  0.00000000  0.20135051       0.001
   0.06710521  0.00000000  0.20135051       0.002
   0.13421043  0.00000000  0.20135051       0.002
   0.20131564  0.00000000  0.20135051       0.002
   0.26842086  0.00000000  0.20135051       0.002
   0.33552607  0.00000000  0.20135051       0.002
   0.40263129  0.00000000  0.20135051       0.002
   0.46973650  0.00000000  0.20135051       0.002
   0.06710521  0.06710521  0.20135051       0.002
   0.13421043  0.06710521  0.20135051       0.005
   0.20131564  0.06710521  0.20135051       0.005
   0.26842086  0.06710521  0.20135051       0.005
   0.33552607  0.06710521  0.20135051       0.005
   0.40263129  0.06710521  0.20135051       0.005
   0.46973650  0.06710521  0.20135051       0.005
   0.13421043  0.13421043  0.20135051       0.002
   0.20131564  0.13421043  0.20135051       0.005
   0.26842086  0.13421043  0.20135051       0.005
   0.33552607  0.13421043  0.20135051       0.005
   0.40263129  0.13421043  0.20135051       0.005
   0.46973650  0.13421043  0.20135051       0.005
   0.20131564  0.20131564  0.20135051       0.002
   0.26842086  0.20131564  0.20135051       0.005
   0.33552607  0.20131564  0.20135051       0.005
   0.40263129  0.20131564  0.20135051       0.005
   0.46973650  0.20131564  0.20135051       0.005
   0.26842086  0.26842086  0.20135051       0.002
   0.33552607  0.26842086  0.20135051       0.005
   0.40263129  0.26842086  0.20135051       0.005
   0.46973650  0.26842086  0.20135051       0.005
   0.33552607  0.33552607  0.20135051       0.002
   0.40263129  0.33552607  0.20135051       0.005
   0.46973650  0.33552607  0.20135051       0.005
   0.40263129  0.40263129  0.20135051       0.002
   0.46973650  0.40263129  0.20135051       0.005
   0.46973650  0.46973650  0.20135051       0.002
   0.00000000  0.00000000  0.26846735       0.001
   0.06710521  0.00000000  0.26846735       0.002
   0.13421043  0.00000000  0.26846735       0.002
   0.20131564  0.00000000  0.26846735       0.002
   0.26842086  0.00000000  0.26846735       0.002
   0.33552607  0.00000000  0.26846735       0.002
   0.40263129  0.00000000  0.26846735       0.002
   0.46973650  0.00000000  0.26846735       0.002
   0.06710521  0.06710521  0.26846735       0.002
   0.13421043  0.06710521  0.26846735       0.005
   0.20131564  0.06710521  0.26846735       0.005
   0.26842086  0.06710521  0.26846735       0.005
   0.33552607  0.06710521  0.26846735       0.005
   0.40263129  0.06710521  0.26846735       0.005
   0.46973650  0.06710521  0.26846735       0.005
   0.13421043  0.13421043  0.26846735       0.002
   0.20131564  0.13421043  0.26846735       0.005
   0.26842086  0.13421043  0.26846735       0.005
   0.33552607  0.13421043  0.26846735       0.005
   0.40263129  0.13421043  0.26846735       0.005
   0.46973650  0.13421043  0.26846735       0.005
   0.20131564  0.20131564  0.26846735       0.002
   0.26842086  0.20131564  0.26846735       0.005
   0.33552607  0.20131564  0.26846735       0.005
   0.40263129  0.20131564  0.26846735       0.005
   0.46973650  0.20131564  0.26846735       0.005
   0.26842086  0.26842086  0.26846735       0.002
   0.33552607  0.26842086  0.26846735       0.005
   0.40263129  0.26842086  0.26846735       0.005
   0.46973650  0.26842086  0.26846735       0.005
   0.33552607  0.33552607  0.26846735       0.002
   0.40263129  0.33552607  0.26846735       0.005
   0.46973650  0.33552607  0.26846735       0.005
   0.40263129  0.40263129  0.26846735       0.002
   0.46973650  0.40263129  0.26846735       0.005
   0.46973650  0.46973650  0.26846735       0.002
   0.00000000  0.00000000  0.33558419       0.001
   0.06710521  0.00000000  0.33558419       0.002
   0.13421043  0.00000000  0.33558419       0.002
   0.20131564  0.00000000  0.33558419       0.002
   0.26842086  0.00000000  0.33558419       0.002
   0.33552607  0.00000000  0.33558419       0.002
   0.40263129  0.00000000  0.33558419       0.002
   0.46973650  0.00000000  0.33558419       0.002
   0.06710521  0.06710521  0.33558419       0.002
   0.13421043  0.06710521  0.33558419       0.005
   0.20131564  0.06710521  0.33558419       0.005
   0.26842086  0.06710521  0.33558419       0.005
   0.33552607  0.06710521  0.33558419       0.005
   0.40263129  0.06710521  0.33558419       0.005
   0.46973650  0.06710521  0.33558419       0.005
   0.13421043  0.13421043  0.33558419       0.002
   0.20131564  0.13421043  0.33558419       0.005
   0.26842086  0.13421043  0.33558419       0.005
   0.33552607  0.13421043  0.33558419       0.005
   0.40263129  0.13421043  0.33558419       0.005
   0.46973650  0.13421043  0.33558419       0.005
   0.20131564  0.20131564  0.33558419       0.002
   0.26842086  0.20131564  0.33558419       0.005
   0.33552607  0.20131564  0.33558419       0.005
   0.40263129  0.20131564  0.33558419       0.005
   0.46973650  0.20131564  0.33558419       0.005
   0.26842086  0.26842086  0.33558419       0.002
   0.33552607  0.26842086  0.33558419       0.005
   0.40263129  0.26842086  0.33558419       0.005
   0.46973650  0.26842086  0.33558419       0.005
   0.33552607  0.33552607  0.33558419       0.002
   0.40263129  0.33552607  0.33558419       0.005
   0.46973650  0.33552607  0.33558419       0.005
   0.40263129  0.40263129  0.33558419       0.002
   0.46973650  0.40263129  0.33558419       0.005
   0.46973650  0.46973650  0.33558419       0.002
   0.00000000  0.00000000  0.40270103       0.001
   0.06710521  0.00000000  0.40270103       0.002
   0.13421043  0.00000000  0.40270103       0.002
   0.20131564  0.00000000  0.40270103       0.002
   0.26842086  0.00000000  0.40270103       0.002
   0.33552607  0.00000000  0.40270103       0.002
   0.40263129  0.00000000  0.40270103       0.002
   0.46973650  0.00000000  0.40270103       0.002
   0.06710521  0.06710521  0.40270103       0.002
   0.13421043  0.06710521  0.40270103       0.005
   0.20131564  0.06710521  0.40270103       0.005
   0.26842086  0.06710521  0.40270103       0.005
   0.33552607  0.06710521  0.40270103       0.005
   0.40263129  0.06710521  0.40270103       0.005
   0.46973650  0.06710521  0.40270103       0.005
   0.13421043  0.13421043  0.40270103       0.002
   0.20131564  0.13421043  0.40270103       0.005
   0.26842086  0.13421043  0.40270103       0.005
   0.33552607  0.13421043  0.40270103       0.005
   0.40263129  0.13421043  0.40270103       0.005
   0.46973650  0.13421043  0.40270103       0.005
   0.20131564  0.20131564  0.40270103       0.002
   0.26842086  0.20131564  0.40270103       0.005
   0.33552607  0.20131564  0.40270103       0.005
   0.40263129  0.20131564  0.40270103       0.005
   0.46973650  0.20131564  0.40270103       0.005
   0.26842086  0.26842086  0.40270103       0.002
   0.33552607  0.26842086  0.40270103       0.005
   0.40263129  0.26842086  0.40270103       0.005
   0.46973650  0.26842086  0.40270103       0.005
   0.33552607  0.33552607  0.40270103       0.002
   0.40263129  0.33552607  0.40270103       0.005
   0.46973650  0.33552607  0.40270103       0.005
   0.40263129  0.40263129  0.40270103       0.002
   0.46973650  0.40263129  0.40270103       0.005
   0.46973650  0.46973650  0.40270103       0.002
   0.00000000  0.00000000  0.46981786       0.001
   0.06710521  0.00000000  0.46981786       0.002
   0.13421043  0.00000000  0.46981786       0.002
   0.20131564  0.00000000  0.46981786       0.002
   0.26842086  0.00000000  0.46981786       0.002
   0.33552607  0.00000000  0.46981786       0.002
   0.40263129  0.00000000  0.46981786       0.002
   0.46973650  0.00000000  0.46981786       0.002
   0.06710521  0.06710521  0.46981786       0.002
   0.13421043  0.06710521  0.46981786       0.005
   0.20131564  0.06710521  0.46981786       0.005
   0.26842086  0.06710521  0.46981786       0.005
   0.33552607  0.06710521  0.46981786       0.005
   0.40263129  0.06710521  0.46981786       0.005
   0.46973650  0.06710521  0.46981786       0.005
   0.13421043  0.13421043  0.46981786       0.002
   0.20131564  0.13421043  0.46981786       0.005
   0.26842086  0.13421043  0.46981786       0.005
   0.33552607  0.13421043  0.46981786       0.005
   0.40263129  0.13421043  0.46981786       0.005
   0.46973650  0.13421043  0.46981786       0.005
   0.20131564  0.20131564  0.46981786       0.002
   0.26842086  0.20131564  0.46981786       0.005
   0.33552607  0.20131564  0.46981786       0.005
   0.40263129  0.20131564  0.46981786       0.005
   0.46973650  0.20131564  0.46981786       0.005
   0.26842086  0.26842086  0.46981786       0.002
   0.33552607  0.26842086  0.46981786       0.005
   0.40263129  0.26842086  0.46981786       0.005
   0.46973650  0.26842086  0.46981786       0.005
   0.33552607  0.33552607  0.46981786       0.002
   0.40263129  0.33552607  0.46981786       0.005
   0.46973650  0.33552607  0.46981786       0.005
   0.40263129  0.40263129  0.46981786       0.002
   0.46973650  0.40263129  0.46981786       0.005
   0.46973650  0.46973650  0.46981786       0.002
 
 k-points in reciprocal lattice and weights: Ni7CoMn5CrSn2                           
   0.00000000  0.00000000  0.00000000       0.000
   0.06666667  0.00000000  0.00000000       0.001
   0.13333333  0.00000000  0.00000000       0.001
   0.20000000  0.00000000  0.00000000       0.001
   0.26666667  0.00000000  0.00000000       0.001
   0.33333333  0.00000000  0.00000000       0.001
   0.40000000  0.00000000  0.00000000       0.001
   0.46666667  0.00000000  0.00000000       0.001
   0.06666667  0.06666667  0.00000000       0.001
   0.13333333  0.06666667  0.00000000       0.002
   0.20000000  0.06666667  0.00000000       0.002
   0.26666667  0.06666667  0.00000000       0.002
   0.33333333  0.06666667  0.00000000       0.002
   0.40000000  0.06666667  0.00000000       0.002
   0.46666667  0.06666667  0.00000000       0.002
   0.13333333  0.13333333  0.00000000       0.001
   0.20000000  0.13333333  0.00000000       0.002
   0.26666667  0.13333333  0.00000000       0.002
   0.33333333  0.13333333  0.00000000       0.002
   0.40000000  0.13333333  0.00000000       0.002
   0.46666667  0.13333333  0.00000000       0.002
   0.20000000  0.20000000  0.00000000       0.001
   0.26666667  0.20000000  0.00000000       0.002
   0.33333333  0.20000000  0.00000000       0.002
   0.40000000  0.20000000  0.00000000       0.002
   0.46666667  0.20000000  0.00000000       0.002
   0.26666667  0.26666667  0.00000000       0.001
   0.33333333  0.26666667  0.00000000       0.002
   0.40000000  0.26666667  0.00000000       0.002
   0.46666667  0.26666667  0.00000000       0.002
   0.33333333  0.33333333  0.00000000       0.001
   0.40000000  0.33333333  0.00000000       0.002
   0.46666667  0.33333333  0.00000000       0.002
   0.40000000  0.40000000  0.00000000       0.001
   0.46666667  0.40000000  0.00000000       0.002
   0.46666667  0.46666667  0.00000000       0.001
   0.00000000  0.00000000  0.06666667       0.001
   0.06666667  0.00000000  0.06666667       0.002
   0.13333333  0.00000000  0.06666667       0.002
   0.20000000  0.00000000  0.06666667       0.002
   0.26666667  0.00000000  0.06666667       0.002
   0.33333333  0.00000000  0.06666667       0.002
   0.40000000  0.00000000  0.06666667       0.002
   0.46666667  0.00000000  0.06666667       0.002
   0.06666667  0.06666667  0.06666667       0.002
   0.13333333  0.06666667  0.06666667       0.005
   0.20000000  0.06666667  0.06666667       0.005
   0.26666667  0.06666667  0.06666667       0.005
   0.33333333  0.06666667  0.06666667       0.005
   0.40000000  0.06666667  0.06666667       0.005
   0.46666667  0.06666667  0.06666667       0.005
   0.13333333  0.13333333  0.06666667       0.002
   0.20000000  0.13333333  0.06666667       0.005
   0.26666667  0.13333333  0.06666667       0.005
   0.33333333  0.13333333  0.06666667       0.005
   0.40000000  0.13333333  0.06666667       0.005
   0.46666667  0.13333333  0.06666667       0.005
   0.20000000  0.20000000  0.06666667       0.002
   0.26666667  0.20000000  0.06666667       0.005
   0.33333333  0.20000000  0.06666667       0.005
   0.40000000  0.20000000  0.06666667       0.005
   0.46666667  0.20000000  0.06666667       0.005
   0.26666667  0.26666667  0.06666667       0.002
   0.33333333  0.26666667  0.06666667       0.005
   0.40000000  0.26666667  0.06666667       0.005
   0.46666667  0.26666667  0.06666667       0.005
   0.33333333  0.33333333  0.06666667       0.002
   0.40000000  0.33333333  0.06666667       0.005
   0.46666667  0.33333333  0.06666667       0.005
[...]
   3.00523095  3.00523095  0.00000000
   0.00000000  0.00000000  0.00000000
   1.50261547  1.50261547  4.50706574
   1.50261547  4.50784642  1.50235525
   4.50784642  1.50261547  1.50235525
   4.50784642  4.50784642  4.50706574
   3.00523095  0.00000000  0.00000000
   0.00000000  3.00523095  0.00000000
   0.00000000  0.00000000  3.00471049
   3.00523095  3.00523095  3.00471049
   1.50261547  1.50261547  1.50235525
   4.50784642  1.50261547  4.50706574
   1.50261547  4.50784642  4.50706574
   4.50784642  4.50784642  1.50235525
 


--------------------------------------------------------------------------------------------------------


 k-point   1 :   0.0000 0.0000 0.0000  plane waves:    5497
 k-point   2 :   0.0667 0.0000 0.0000  plane waves:    5486
 k-point   3 :   0.1333 0.0000 0.0000  plane waves:    5514
 k-point   4 :   0.2000 0.0000 0.0000  plane waves:    5502
 k-point   5 :   0.2667 0.0000 0.0000  plane waves:    5518
 k-point   6 :   0.3333 0.0000 0.0000  plane waves:    5522
 k-point   7 :   0.4000 0.0000 0.0000  plane waves:    5506
 k-point   8 :   0.4667 0.0000 0.0000  plane waves:    5510
 k-point   9 :   0.0667 0.0667 0.0000  plane waves:    5497
 k-point  10 :   0.1333 0.0667 0.0000  plane waves:    5506
 k-point  11 :   0.2000 0.0667 0.0000  plane waves:    5512
 k-point  12 :   0.2667 0.0667 0.0000  plane waves:    5514
 k-point  13 :   0.3333 0.0667 0.0000  plane waves:    5516
 k-point  14 :   0.4000 0.0667 0.0000  plane waves:    5497
 k-point  15 :   0.4667 0.0667 0.0000  plane waves:    5498
 k-point  16 :   0.1333 0.1333 0.0000  plane waves:    5517
 k-point  17 :   0.2000 0.1333 0.0000  plane waves:    5506
 k-point  18 :   0.2667 0.1333 0.0000  plane waves:    5503
 k-point  19 :   0.3333 0.1333 0.0000  plane waves:    5509
 k-point  20 :   0.4000 0.1333 0.0000  plane waves:    5501
 k-point  21 :   0.4667 0.1333 0.0000  plane waves:    5503
 k-point  22 :   0.2000 0.2000 0.0000  plane waves:    5501
 k-point  23 :   0.2667 0.2000 0.0000  plane waves:    5499
 k-point  24 :   0.3333 0.2000 0.0000  plane waves:    5501
 k-point  25 :   0.4000 0.2000 0.0000  plane waves:    5494
 k-point  26 :   0.4667 0.2000 0.0000  plane waves:    5504
 k-point  27 :   0.2667 0.2667 0.0000  plane waves:    5510
 k-point  28 :   0.3333 0.2667 0.0000  plane waves:    5496
 k-point  29 :   0.4000 0.2667 0.0000  plane waves:    5495
 k-point  30 :   0.4667 0.2667 0.0000  plane waves:    5504
 k-point  31 :   0.3333 0.3333 0.0000  plane waves:    5492
 k-point  32 :   0.4000 0.3333 0.0000  plane waves:    5505
 k-point  33 :   0.4667 0.3333 0.0000  plane waves:    5489
 k-point  34 :   0.4000 0.4000 0.0000  plane waves:    5508
 k-point  35 :   0.4667 0.4000 0.0000  plane waves:    5500
 k-point  36 :   0.4667 0.4667 0.0000  plane waves:    5484
 k-point  37 :   0.0000 0.0000 0.0667  plane waves:    5482
 k-point  38 :   0.0667 0.0000 0.0667  plane waves:    5499
 k-point  39 :   0.1333 0.0000 0.0667  plane waves:    5506
 k-point  40 :   0.2000 0.0000 0.0667  plane waves:    5512
 k-point  41 :   0.2667 0.0000 0.0667  plane waves:    5513
 k-point  42 :   0.3333 0.0000 0.0667  plane waves:    5516
 k-point  43 :   0.4000 0.0000 0.0667  plane waves:    5497
 k-point  44 :   0.4667 0.0000 0.0667  plane waves:    5498
 k-point  45 :   0.0667 0.0667 0.0667  plane waves:    5494
 k-point  46 :   0.1333 0.0667 0.0667  plane waves:    5508
 k-point  47 :   0.2000 0.0667 0.0667  plane waves:    5505
 k-point  48 :   0.2667 0.0667 0.0667  plane waves:    5507
 k-point  49 :   0.3333 0.0667 0.0667  plane waves:    5515
 k-point  50 :   0.4000 0.0667 0.0667  plane waves:    5506
 k-point  51 :   0.4667 0.0667 0.0667  plane waves:    5503
 k-point  52 :   0.1333 0.1333 0.0667  plane waves:    5505
 k-point  53 :   0.2000 0.1333 0.0667  plane waves:    5496
 k-point  54 :   0.2667 0.1333 0.0667  plane waves:    5507
 k-point  55 :   0.3333 0.1333 0.0667  plane waves:    5505
 k-point  56 :   0.4000 0.1333 0.0667  plane waves:    5504
 k-point  57 :   0.4667 0.1333 0.0667  plane waves:    5513
 k-point  58 :   0.2000 0.2000 0.0667  plane waves:    5496
 k-point  59 :   0.2667 0.2000 0.0667  plane waves:    5503
 k-point  60 :   0.3333 0.2000 0.0667  plane waves:    5500
 k-point  61 :   0.4000 0.2000 0.0667  plane waves:    5506
 k-point  62 :   0.4667 0.2000 0.0667  plane waves:    5507
 k-point  63 :   0.2667 0.2667 0.0667  plane waves:    5491
 k-point  64 :   0.3333 0.2667 0.0667  plane waves:    5499
 k-point  65 :   0.4000 0.2667 0.0667  plane waves:    5509
 k-point  66 :   0.4667 0.2667 0.0667  plane waves:    5500
 k-point  67 :   0.3333 0.3333 0.0667  plane waves:    5502
 k-point  68 :   0.4000 0.3333 0.0667  plane waves:    5504
 k-point  69 :   0.4667 0.3333 0.0667  plane waves:    5497
 k-point  70 :   0.4000 0.4000 0.0667  plane waves:    5496
 k-point  71 :   0.4667 0.4000 0.0667  plane waves:    5502
 k-point  72 :   0.4667 0.4667 0.0667  plane waves:    5505
 k-point  73 :   0.0000 0.0000 0.1333  plane waves:    5510
 k-point  74 :   0.0667 0.0000 0.1333  plane waves:    5506
 k-point  75 :   0.1333 0.0000 0.1333  plane waves:    5517
 k-point  76 :   0.2000 0.0000 0.1333  plane waves:    5508
 k-point  77 :   0.2667 0.0000 0.1333  plane waves:    5503
 k-point  78 :   0.3333 0.0000 0.1333  plane waves:    5509
 k-point  79 :   0.4000 0.0000 0.1333  plane waves:    5501
 k-point  80 :   0.4667 0.0000 0.1333  plane waves:    5503
 k-point  81 :   0.0667 0.0667 0.1333  plane waves:    5508
 k-point  82 :   0.1333 0.0667 0.1333  plane waves:    5505
 k-point  83 :   0.2000 0.0667 0.1333  plane waves:    5495
 k-point  84 :   0.2667 0.0667 0.1333  plane waves:    5507
 k-point  85 :   0.3333 0.0667 0.1333  plane waves:    5505
 k-point  86 :   0.4000 0.0667 0.1333  plane waves:    5503
 k-point  87 :   0.4667 0.0667 0.1333  plane waves:    5513
 k-point  88 :   0.1333 0.1333 0.1333  plane waves:    5503
 k-point  89 :   0.2000 0.1333 0.1333  plane waves:    5504
 k-point  90 :   0.2667 0.1333 0.1333  plane waves:    5507
 k-point  91 :   0.3333 0.1333 0.1333  plane waves:    5507
 k-point  92 :   0.4000 0.1333 0.1333  plane waves:    5515
 k-point  93 :   0.4667 0.1333 0.1333  plane waves:    5523
 k-point  94 :   0.2000 0.2000 0.1333  plane waves:    5500
 k-point  95 :   0.2667 0.2000 0.1333  plane waves:    5505
 k-point  96 :   0.3333 0.2000 0.1333  plane waves:    5509
 k-point  97 :   0.4000 0.2000 0.1333  plane waves:    5516
 k-point  98 :   0.4667 0.2000 0.1333  plane waves:    5516
 k-point  99 :   0.2667 0.2667 0.1333  plane waves:    5502
 k-point 100 :   0.3333 0.2667 0.1333  plane waves:    5505
 k-point 101 :   0.4000 0.2667 0.1333  plane waves:    5506
 k-point 102 :   0.4667 0.2667 0.1333  plane waves:    5517
 k-point 103 :   0.3333 0.3333 0.1333  plane waves:    5509
 k-point 104 :   0.4000 0.3333 0.1333  plane waves:    5512
 k-point 105 :   0.4667 0.3333 0.1333  plane waves:    5506
 k-point 106 :   0.4000 0.4000 0.1333  plane waves:    5513
 k-point 107 :   0.4667 0.4000 0.1333  plane waves:    5503
 k-point 108 :   0.4667 0.4667 0.1333  plane waves:    5511
 k-point 109 :   0.0000 0.0000 0.2000  plane waves:    5502
 k-point 110 :   0.0667 0.0000 0.2000  plane waves:    5512
 k-point 111 :   0.1333 0.0000 0.2000  plane waves:    5506
 k-point 112 :   0.2000 0.0000 0.2000  plane waves:    5495
 k-point 113 :   0.2667 0.0000 0.2000  plane waves:    5499
 k-point 114 :   0.3333 0.0000 0.2000  plane waves:    5499
 k-point 115 :   0.4000 0.0000 0.2000  plane waves:    5494
 k-point 116 :   0.4667 0.0000 0.2000  plane waves:    5502
 k-point 117 :   0.0667 0.0667 0.2000  plane waves:    5505
 k-point 118 :   0.1333 0.0667 0.2000  plane waves:    5496
 k-point 119 :   0.2000 0.0667 0.2000  plane waves:    5496
 k-point 120 :   0.2667 0.0667 0.2000  plane waves:    5503
 k-point 121 :   0.3333 0.0667 0.2000  plane waves:    5500
 k-point 122 :   0.4000 0.0667 0.2000  plane waves:    5506
 k-point 123 :   0.4667 0.0667 0.2000  plane waves:    5506
 k-point 124 :   0.1333 0.1333 0.2000  plane waves:    5502
 k-point 125 :   0.2000 0.1333 0.2000  plane waves:    5500
 k-point 126 :   0.2667 0.1333 0.2000  plane waves:    5508
 k-point 127 :   0.3333 0.1333 0.2000  plane waves:    5509
 k-point 128 :   0.4000 0.1333 0.2000  plane waves:    5517
 k-point 129 :   0.4667 0.1333 0.2000  plane waves:    5514
 k-point 130 :   0.2000 0.2000 0.2000  plane waves:    5515
 k-point 131 :   0.2667 0.2000 0.2000  plane waves:    5504
 k-point 132 :   0.3333 0.2000 0.2000  plane waves:    5524
 k-point 133 :   0.4000 0.2000 0.2000  plane waves:    5521
 k-point 134 :   0.4667 0.2000 0.2000  plane waves:    5517
 k-point 135 :   0.2667 0.2667 0.2000  plane waves:    5515
 k-point 136 :   0.3333 0.2667 0.2000  plane waves:    5518
 k-point 137 :   0.4000 0.2667 0.2000  plane waves:    5520
 k-point 138 :   0.4667 0.2667 0.2000  plane waves:    5523
 k-point 139 :   0.3333 0.3333 0.2000  plane waves:    5519
 k-point 140 :   0.4000 0.3333 0.2000  plane waves:    5520
 k-point 141 :   0.4667 0.3333 0.2000  plane waves:    5530
 k-point 142 :   0.4000 0.4000 0.2000  plane waves:    5524
 k-point 143 :   0.4667 0.4000 0.2000  plane waves:    5525
 k-point 144 :   0.4667 0.4667 0.2000  plane waves:    5523
 k-point 145 :   0.0000 0.0000 0.2667  plane waves:    5518
 k-point 146 :   0.0667 0.0000 0.2667  plane waves:    5510
 k-point 147 :   0.1333 0.0000 0.2667  plane waves:    5503
 k-point 148 :   0.2000 0.0000 0.2667  plane waves:    5499
 k-point 149 :   0.2667 0.0000 0.2667  plane waves:    5506
 k-point 150 :   0.3333 0.0000 0.2667  plane waves:    5496
 k-point 151 :   0.4000 0.0000 0.2667  plane waves:    5495
 k-point 152 :   0.4667 0.0000 0.2667  plane waves:    5504
 k-point 153 :   0.0667 0.0667 0.2667  plane waves:    5505
 k-point 154 :   0.1333 0.0667 0.2667  plane waves:    5507
 k-point 155 :   0.2000 0.0667 0.2667  plane waves:    5502
 k-point 156 :   0.2667 0.0667 0.2667  plane waves:    5495
 k-point 157 :   0.3333 0.0667 0.2667  plane waves:    5500
 k-point 158 :   0.4000 0.0667 0.2667  plane waves:    5509
 k-point 159 :   0.4667 0.0667 0.2667  plane waves:    5500
 k-point 160 :   0.1333 0.1333 0.2667  plane waves:    5507
 k-point 161 :   0.2000 0.1333 0.2667  plane waves:    5505
 k-point 162 :   0.2667 0.1333 0.2667  plane waves:    5502
 k-point 163 :   0.3333 0.1333 0.2667  plane waves:    5505
 k-point 164 :   0.4000 0.1333 0.2667  plane waves:    5507
 k-point 165 :   0.4667 0.1333 0.2667  plane waves:    5517
 k-point 166 :   0.2000 0.2000 0.2667  plane waves:    5503
 k-point 167 :   0.2667 0.2000 0.2667  plane waves:    5514
 k-point 168 :   0.3333 0.2000 0.2667  plane waves:    5518
 k-point 169 :   0.4000 0.2000 0.2667  plane waves:    5521
 k-point 170 :   0.4667 0.2000 0.2667  plane waves:    5522
 k-point 171 :   0.2667 0.2667 0.2667  plane waves:    5514
 k-point 172 :   0.3333 0.2667 0.2667  plane waves:    5527
 k-point 173 :   0.4000 0.2667 0.2667  plane waves:    5527
 k-point 174 :   0.4667 0.2667 0.2667  plane waves:    5533
 k-point 175 :   0.3333 0.3333 0.2667  plane waves:    5521
 k-point 176 :   0.4000 0.3333 0.2667  plane waves:    5527
 k-point 177 :   0.4667 0.3333 0.2667  plane waves:    5530
 k-point 178 :   0.4000 0.4000 0.2667  plane waves:    5537
 k-point 179 :   0.4667 0.4000 0.2667  plane waves:    5540
 k-point 180 :   0.4667 0.4667 0.2667  plane waves:    5538
 k-point 181 :   0.0000 0.0000 0.3333  plane waves:    5522
 k-point 182 :   0.0667 0.0000 0.3333  plane waves:    5516
 k-point 183 :   0.1333 0.0000 0.3333  plane waves:    5511
 k-point 184 :   0.2000 0.0000 0.3333  plane waves:    5501
 k-point 185 :   0.2667 0.0000 0.3333  plane waves:    5496
 k-point 186 :   0.3333 0.0000 0.3333  plane waves:    5492
 k-point 187 :   0.4000 0.0000 0.3333  plane waves:    5505
 k-point 188 :   0.4667 0.0000 0.3333  plane waves:    5489
 k-point 189 :   0.0667 0.0667 0.3333  plane waves:    5515
 k-point 190 :   0.1333 0.0667 0.3333  plane waves:    5505
 k-point 191 :   0.2000 0.0667 0.3333  plane waves:    5500
 k-point 192 :   0.2667 0.0667 0.3333  plane waves:    5499
 k-point 193 :   0.3333 0.0667 0.3333  plane waves:    5502
 k-point 194 :   0.4000 0.0667 0.3333  plane waves:    5505
 k-point 195 :   0.4667 0.0667 0.3333  plane waves:    5497
 k-point 196 :   0.1333 0.1333 0.3333  plane waves:    5502
 k-point 197 :   0.2000 0.1333 0.3333  plane waves:    5509
 k-point 198 :   0.2667 0.1333 0.3333  plane waves:    5505
 k-point 199 :   0.3333 0.1333 0.3333  plane waves:    5509
 k-point 200 :   0.4000 0.1333 0.3333  plane waves:    5512
 k-point 201 :   0.4667 0.1333 0.3333  plane waves:    5507
 k-point 202 :   0.2000 0.2000 0.3333  plane waves:    5523
 k-point 203 :   0.2667 0.2000 0.3333  plane waves:    5518
 k-point 204 :   0.3333 0.2000 0.3333  plane waves:    5515
 k-point 205 :   0.4000 0.2000 0.3333  plane waves:    5520
 k-point 206 :   0.4667 0.2000 0.3333  plane waves:    5530
 k-point 207 :   0.2667 0.2667 0.3333  plane waves:    5527
 k-point 208 :   0.3333 0.2667 0.3333  plane waves:    5521
 k-point 209 :   0.4000 0.2667 0.3333  plane waves:    5526
 k-point 210 :   0.4667 0.2667 0.3333  plane waves:    5530
 k-point 211 :   0.3333 0.3333 0.3333  plane waves:    5532
 k-point 212 :   0.4000 0.3333 0.3333  plane waves:    5535
 k-point 213 :   0.4667 0.3333 0.3333  plane waves:    5553
 k-point 214 :   0.4000 0.4000 0.3333  plane waves:    5530
 k-point 215 :   0.4667 0.4000 0.3333  plane waves:    5547
 k-point 216 :   0.4667 0.4667 0.3333  plane waves:    5533
 k-point 217 :   0.0000 0.0000 0.4000  plane waves:    5506
 k-point 218 :   0.0667 0.0000 0.4000  plane waves:    5497
 k-point 219 :   0.1333 0.0000 0.4000  plane waves:    5501
 k-point 220 :   0.2000 0.0000 0.4000  plane waves:    5494
 k-point 221 :   0.2667 0.0000 0.4000  plane waves:    5495
 k-point 222 :   0.3333 0.0000 0.4000  plane waves:    5507
 k-point 223 :   0.4000 0.0000 0.4000  plane waves:    5508
 k-point 224 :   0.4667 0.0000 0.4000  plane waves:    5500
 k-point 225 :   0.0667 0.0667 0.4000  plane waves:    5506
 k-point 226 :   0.1333 0.0667 0.4000  plane waves:    5504
 k-point 227 :   0.2000 0.0667 0.4000  plane waves:    5505
 k-point 228 :   0.2667 0.0667 0.4000  plane waves:    5509
 k-point 229 :   0.3333 0.0667 0.4000  plane waves:    5506
 k-point 230 :   0.4000 0.0667 0.4000  plane waves:    5500
 k-point 231 :   0.4667 0.0667 0.4000  plane waves:    5502
 k-point 232 :   0.1333 0.1333 0.4000  plane waves:    5517
 k-point 233 :   0.2000 0.1333 0.4000  plane waves:    5519
 k-point 234 :   0.2667 0.1333 0.4000  plane waves:    5507
 k-point 235 :   0.3333 0.1333 0.4000  plane waves:    5512
 k-point 236 :   0.4000 0.1333 0.4000  plane waves:    5513
 k-point 237 :   0.4667 0.1333 0.4000  plane waves:    5504
 k-point 238 :   0.2000 0.2000 0.4000  plane waves:    5521
 k-point 239 :   0.2667 0.2000 0.4000  plane waves:    5519
 k-point 240 :   0.3333 0.2000 0.4000  plane waves:    5520
 k-point 241 :   0.4000 0.2000 0.4000  plane waves:    5524
 k-point 242 :   0.4667 0.2000 0.4000  plane waves:    5523
 k-point 243 :   0.2667 0.2667 0.4000  plane waves:    5527
 k-point 244 :   0.3333 0.2667 0.4000  plane waves:    5527
 k-point 245 :   0.4000 0.2667 0.4000  plane waves:    5534
 k-point 246 :   0.4667 0.2667 0.4000  plane waves:    5538
 k-point 247 :   0.3333 0.3333 0.4000  plane waves:    5535
 k-point 248 :   0.4000 0.3333 0.4000  plane waves:    5530
 k-point 249 :   0.4667 0.3333 0.4000  plane waves:    5547
 k-point 250 :   0.4000 0.4000 0.4000  plane waves:    5544
 k-point 251 :   0.4667 0.4000 0.4000  plane waves:    5538
 k-point 252 :   0.4667 0.4667 0.4000  plane waves:    5527
 k-point 253 :   0.0000 0.0000 0.4667  plane waves:    5510
 k-point 254 :   0.0667 0.0000 0.4667  plane waves:    5498
 k-point 255 :   0.1333 0.0000 0.4667  plane waves:    5503
 k-point 256 :   0.2000 0.0000 0.4667  plane waves:    5502
 k-point 257 :   0.2667 0.0000 0.4667  plane waves:    5504
 k-point 258 :   0.3333 0.0000 0.4667  plane waves:    5487
 k-point 259 :   0.4000 0.0000 0.4667  plane waves:    5500
 k-point 260 :   0.4667 0.0000 0.4667  plane waves:    5484
 k-point 261 :   0.0667 0.0667 0.4667  plane waves:    5503
 k-point 262 :   0.1333 0.0667 0.4667  plane waves:    5513
 k-point 263 :   0.2000 0.0667 0.4667  plane waves:    5506
 k-point 264 :   0.2667 0.0667 0.4667  plane waves:    5500
 k-point 265 :   0.3333 0.0667 0.4667  plane waves:    5497
 k-point 266 :   0.4000 0.0667 0.4667  plane waves:    5502
 k-point 267 :   0.4667 0.0667 0.4667  plane waves:    5505
 k-point 268 :   0.1333 0.1333 0.4667  plane waves:    5523
 k-point 269 :   0.2000 0.1333 0.4667  plane waves:    5515
 k-point 270 :   0.2667 0.1333 0.4667  plane waves:    5517
 k-point 271 :   0.3333 0.1333 0.4667  plane waves:    5507
 k-point 272 :   0.4000 0.1333 0.4667  plane waves:    5501
 k-point 273 :   0.4667 0.1333 0.4667  plane waves:    5511
 k-point 274 :   0.2000 0.2000 0.4667  plane waves:    5517
 k-point 275 :   0.2667 0.2000 0.4667  plane waves:    5522
 k-point 276 :   0.3333 0.2000 0.4667  plane waves:    5530
 k-point 277 :   0.4000 0.2000 0.4667  plane waves:    5523
 k-point 278 :   0.4667 0.2000 0.4667  plane waves:    5526
 k-point 279 :   0.2667 0.2667 0.4667  plane waves:    5533
 k-point 280 :   0.3333 0.2667 0.4667  plane waves:    5530
 k-point 281 :   0.4000 0.2667 0.4667  plane waves:    5540
 k-point 282 :   0.4667 0.2667 0.4667  plane waves:    5538
 k-point 283 :   0.3333 0.3333 0.4667  plane waves:    5553
 k-point 284 :   0.4000 0.3333 0.4667  plane waves:    5547
 k-point 285 :   0.4667 0.3333 0.4667  plane waves:    5537
 k-point 286 :   0.4000 0.4000 0.4667  plane waves:    5538
 k-point 287 :   0.4667 0.4000 0.4667  plane waves:    5526
 k-point 288 :   0.4667 0.4667 0.4667  plane waves:    5544

 maximum and minimum number of plane-waves per node :      1129     1058

 maximum number of plane-waves:      5553
 maximum index in each direction: 
   IXMAX=   10   IYMAX=   10   IZMAX=   10
   IXMIN=  -11   IYMIN=  -11   IZMIN=  -11


 real space projection operators:
  total allocation   :      15012.28 KBytes
  max/ min on nodes  :       3113.41       2840.44


 parallel 3D FFT for wavefunctions:
    minimum data exchange during FFTs selected (reduces bandwidth)
 parallel 3D FFT for charge:
    minimum data exchange during FFTs selected (reduces bandwidth)


 total amount of memory used by VASP MPI-rank0   227007. kBytes
=======================================================================

   base      :      30000. kBytes
   nonlr-proj:       6488. kBytes
   fftplans  :       7550. kBytes
   grid      :       5898. kBytes
   one-center:        124. kBytes
   wavefun   :     176947. kBytes
 
     INWAV:  cpu time    0.0000: real time    0.0001
 Broyden mixing: mesh for mixing (old mesh)
   NGX = 21   NGY = 21   NGZ = 21
  (NGX  = 96   NGY  = 96   NGZ  = 96)
  gives a total of   9261 points

 initial charge density was supplied:
 charge density of overlapping atoms calculated
 number of electron     184.0000000 magnetization      23.2000000
 keeping initial charge density in first step


--------------------------------------------------------------------------------------------------------


 Maximum index for non-local projection operator         2006
 Maximum index for augmentation-charges        11502 (set IRDMAX)


--------------------------------------------------------------------------------------------------------


 First call to EWALD:  gamma=   0.295
 Maximum number of real-space cells 3x 3x 3
 Maximum number of reciprocal cells 3x 3x 3

    FEWALD:  cpu time    0.0000: real time    0.0014


--------------------------------------- Iteration      1(   1)  ---------------------------------------


    POTLOK:  cpu time    0.1040: real time    0.1146
    SETDIJ:  cpu time    0.3200: real time    0.3188
