 vasp.6.2.0 18Jan21 (build Feb 24 2021 14:57:03) complex                        
  
 executed on             LinuxIFC date 2023.06.13  20:40:22
 running on   20 total cores
 distrk:  each k-point on   20 cores,    1 groups
 distr:  one band on NCORE=   4 cores,    5 groups


--------------------------------------------------------------------------------------------------------


 INCAR:
   SYSTEM = NiCoMnGa
   LCHARG = .TRUE.
   LWAVE = .FALSE.
   ICHARG = 2
   IBRION = 2
   ISIF = 3
   PREC = Accurate
   ENCUT = 500
   LREAL = A
   POTIM = 0.01
   EDIFF = 1e-6
   ISMEAR = 1
   SIGMA = 0.1
   ISPIN = 2
   LORBIT = 10
   ISYM = 2
   RWIGS = 8*1.164 4*1.302 4*1.217
   MAGMOM = 8*2.3 4*1.2 4*0
   NSW = 0
   NEDOS = 1500
   GGA_COMPAT = .TRUE.
   LMAXMIX = 6
   NELMDL = -6
   NELM = 160
   ADDGRID = .TRUE.
   NCORE = 4
   NPAR = 6
   AMIX = 0.18
   AMIX_MAG = 0.26
   BMIX = 0.0025
   BMIX_MAG = 0.005
   EDIFFG = -5E-3

 POTCAR:    PAW_PBE Fe_pv 02Aug2007               
 POTCAR:    PAW_PBE Co_pv 23Apr2009               
 POTCAR:      PAW_PBE In 08Apr2002                
 -----------------------------------------------------------------------------
|                                                                             |
|           W    W    AA    RRRRR   N    N  II  N    N   GGGG   !!!           |
|           W    W   A  A   R    R  NN   N  II  NN   N  G    G  !!!           |
|           W    W  A    A  R    R  N N  N  II  N N  N  G       !!!           |
|           W WW W  AAAAAA  RRRRR   N  N N  II  N  N N  G  GGG   !            |
|           WW  WW  A    A  R   R   N   NN  II  N   NN  G    G                |
|           W    W  A    A  R    R  N    N  II  N    N   GGGG   !!!           |
|                                                                             |
|     The value NPAR = 6 specified in the INCAR file was overwritten,         |
|     because it was not compatible with the 20 processes available:          |
|     NPAR = 5                                                                |
|     was used instead, please check that this makes sense for your           |
|     machine.                                                                |
|                                                                             |
 -----------------------------------------------------------------------------

 POTCAR:    PAW_PBE Fe_pv 02Aug2007               
   VRHFIN =Fe:  3pd7s1                                                                              
   LEXCH  = PE                                                                                      
   EATOM  =  2457.4239 eV,  180.6156 Ry                                                             
                                                                                                    
   TITEL  = PAW_PBE Fe_pv 02Aug2007                                                                 
   LULTRA =        F    use ultrasoft PP ?                                                          
   IUNSCR =        1    unscreen: 0-lin 1-nonlin 2-no                                               
   RPACOR =    1.750    partial core radius                                                         
   POMASS =   55.847; ZVAL   =   14.000    mass and valenz                                          
   RCORE  =    2.200    outmost cutoff radius                                                       
   RWIGS  =    2.200; RWIGS  =    1.164    wigner-seitz radius (au A)                               
   ENMAX  =  293.238; ENMIN  =  219.928 eV                                                          
   ICORE  =        3    local potential                                                             
   LCOR   =        T    correct aug charges                                                         
   LPAW   =        T    paw PP                                                                      
   EAUG   =  578.342                                                                                
   DEXC   =    0.000                                                                                
   RMAX   =    2.249    core radius for proj-oper                                                   
   RAUG   =    1.300    factor for augmentation sphere                                              
   RDEP   =    2.296    radius for radial grids                                                     
   RDEPT  =    1.766    core radius for aug-charge                                                  
                                                                                                    
   Atomic configuration                                                                             
    8 entries                                                                                       
     n  l   j            E        occ.                                                              
     1  0  0.50     -6993.8440   2.0000                                                             
     2  0  0.50      -814.6047   2.0000                                                             
     2  1  1.50      -693.3689   6.0000                                                             
     3  0  0.50       -89.4732   2.0000                                                             
     3  1  1.50       -55.6373   6.0000                                                             
     3  2  2.50        -3.8151   7.0000                                                             
     4  0  0.50        -4.2551   1.0000                                                             
     4  3  2.50        -1.3606   0.0000                                                             
   Description                                                                                      
     l       E           TYP  RCUT    TYP  RCUT                                                     
     1    -55.6372668     23  2.000                                                                 
     1     -5.4423304     23  2.000                                                                 
     2     -3.8151096     23  2.200                                                                 
     2     -5.1756922     23  2.200                                                                 
     0     -4.2550951     23  2.200                                                                 
     0     27.2116520     23  2.200                                                                 
     3     -1.3605826     23  2.200                                                                 
  local pseudopotential read in
  partial core-charges read in
  partial kinetic energy density read in
  atomic valenz-charges read in
  non local Contribution for L=           1  read in
    real space projection operators read in
  non local Contribution for L=           1  read in
    real space projection operators read in
  non local Contribution for L=           2  read in
    real space projection operators read in
  non local Contribution for L=           2  read in
    real space projection operators read in
  non local Contribution for L=           0  read in
    real space projection operators read in
  non local Contribution for L=           0  read in
    real space projection operators read in
    PAW grid and wavefunctions read in
 
   number of l-projection  operators is LMAX  =           6
   number of lm-projection operators is LMMAX =          18
 
 POTCAR:    PAW_PBE Co_pv 23Apr2009               
   VRHFIN =Co: 3pd7s1                                                                               
   LEXCH  = PE                                                                                      
   EATOM  =  2948.1334 eV,  216.6817 Ry                                                             
                                                                                                    
   TITEL  = PAW_PBE Co_pv 23Apr2009                                                                 
   LULTRA =        F    use ultrasoft PP ?                                                          
   IUNSCR =        1    unscreen: 0-lin 1-nonlin 2-no                                               
   RPACOR =    2.000    partial core radius                                                         
   POMASS =   58.933; ZVAL   =   15.000    mass and valenz                                          
   RCORE  =    2.300    outmost cutoff radius                                                       
   RWIGS  =    2.460; RWIGS  =    1.302    wigner-seitz radius (au A)                               
   ENMAX  =  271.042; ENMIN  =  203.281 eV                                                          
   ICORE  =        3    local potential                                                             
   LCOR   =        T    correct aug charges                                                         
   LPAW   =        T    paw PP                                                                      
   EAUG   =  543.066                                                                                
   DEXC   =    0.000                                                                                
   RMAX   =    2.360    core radius for proj-oper                                                   
   RAUG   =    1.300    factor for augmentation sphere                                              
   RDEP   =    2.393    radius for radial grids                                                     
   RDEPT  =    1.841    core radius for aug-charge                                                  
                                                                                                    
   Atomic configuration                                                                             
    8 entries                                                                                       
     n  l   j            E        occ.                                                              
     1  0  0.50     -7587.6674   2.0000                                                             
     2  0  0.50      -893.6084   2.0000                                                             
     2  1  1.50      -764.5805   6.0000                                                             
     3  0  0.50       -97.5973   2.0000                                                             
     3  1  1.50       -60.9648   6.0000                                                             
     3  2  2.50        -4.2382   8.0000                                                             
     4  0  0.50        -4.3746   1.0000                                                             
     4  3  2.50        -1.3606   0.0000                                                             
   Description                                                                                      
     l       E           TYP  RCUT    TYP  RCUT                                                     
     1    -60.9647990     23  2.000                                                                 
     1     -5.4423304     23  2.000                                                                 
     2     -4.2382362     23  2.300                                                                 
     2     -5.5988188     23  2.300                                                                 
     0     -4.3745797     23  2.300                                                                 
     0      5.7660125     23  2.300                                                                 
     3     -1.3605826     23  2.300                                                                 
  local pseudopotential read in
  partial core-charges read in
  partial kinetic energy density read in
  atomic valenz-charges read in
  non local Contribution for L=           1  read in
    real space projection operators read in
  non local Contribution for L=           1  read in
    real space projection operators read in
  non local Contribution for L=           2  read in
    real space projection operators read in
  non local Contribution for L=           2  read in
    real space projection operators read in
  non local Contribution for L=           0  read in
    real space projection operators read in
  non local Contribution for L=           0  read in
    real space projection operators read in
    PAW grid and wavefunctions read in
 
   number of l-projection  operators is LMAX  =           6
   number of lm-projection operators is LMMAX =          18
 
 POTCAR:      PAW_PBE In 08Apr2002                
   VRHFIN =In: s2p1                                                                                 
   LEXCH  = PE                                                                                      
   EATOM  =    53.7908 eV,    3.9535 Ry                                                             
                                                                                                    
   TITEL  = PAW_PBE In 08Apr2002                                                                    
   LULTRA =        F    use ultrasoft PP ?                                                          
   IUNSCR =        1    unscreen: 0-lin 1-nonlin 2-no                                               
   RPACOR =    2.400    partial core radius                                                         
   POMASS =  114.820; ZVAL   =    3.000    mass and valenz                                          
   RCORE  =    3.100    outmost cutoff radius                                                       
   RWIGS  =    3.170; RWIGS  =    1.677    wigner-seitz radius (au A)                               
   ENMAX  =   95.934; ENMIN  =   71.951 eV                                                          
   ICORE  =        3    local potential                                                             
   LCOR   =        T    correct aug charges                                                         
   LPAW   =        T    paw PP                                                                      
   EAUG   =  237.125                                                                                
   DEXC   =    0.000                                                                                
   RMAX   =    3.168    core radius for proj-oper                                                   
   RAUG   =    1.300    factor for augmentation sphere                                              
   RDEP   =    3.187    radius for radial grids                                                     
   RDEPT  =    2.711    core radius for aug-charge                                                  
                                                                                                    
   Atomic configuration                                                                             
   13 entries                                                                                       
     n  l   j            E        occ.                                                              
     1  0  0.50    -27747.9169   2.0000                                                             
     2  0  0.50     -4154.4438   2.0000                                                             
     2  1  1.50     -3728.4305   6.0000                                                             
     3  0  0.50      -788.3680   2.0000                                                             
     3  1  1.50      -648.9215   6.0000                                                             
     3  2  2.50      -432.5893  10.0000                                                             
     4  0  0.50      -119.6363   2.0000                                                             
     4  1  1.50       -78.1086   6.0000                                                             
     4  2  2.50       -18.6227  10.0000                                                             
     5  0  0.50        -8.2107   2.0000                                                             
     5  1  0.50        -2.5185   1.0000                                                             
     5  2  2.50        -1.3606   0.0000                                                             
     4  3  2.50        -2.7212   0.0000                                                             
   Description                                                                                      
     l       E           TYP  RCUT    TYP  RCUT                                                     
     0     -8.2107306     23  3.100                                                                 
     0     -6.1485975     23  3.100                                                                 
     1     -2.5184867     23  3.100                                                                 
     1      3.2427302     23  3.100                                                                 
     2     -1.3605826     23  3.100                                                                 
     3     -1.3605826     23  3.100                                                                 
  local pseudopotential read in
  partial core-charges read in
  partial kinetic energy density read in
  atomic valenz-charges read in
  non local Contribution for L=           0  read in
    real space projection operators read in
  non local Contribution for L=           0  read in
    real space projection operators read in
  non local Contribution for L=           1  read in
    real space projection operators read in
  non local Contribution for L=           1  read in
    real space projection operators read in
  non local Contribution for L=           2  read in
    real space projection operators read in
    PAW grid and wavefunctions read in
 
   number of l-projection  operators is LMAX  =           5
   number of lm-projection operators is LMMAX =          13
 
 Optimization of the real space projectors (new method)

 maximal supplied QI-value         = 17.01
 optimisation between [QCUT,QGAM] = [ 11.40, 22.79] = [ 36.36,145.44] Ry 
 Optimized for a Real-space Cutoff    1.47 Angstroem

   l    n(q)    QCUT    max X(q) W(low)/X(q) W(high)/X(q)  e(spline) 
   1     10    11.395     4.267    0.90E-04    0.11E-03    0.18E-06
   1     10    11.395     5.750    0.14E-03    0.15E-03    0.25E-06
   2      9    11.395    53.656    0.13E-03    0.36E-04    0.15E-06
   2      9    11.395    49.521    0.14E-03    0.36E-04    0.15E-06
   0     10    11.395    31.246    0.58E-04    0.17E-05    0.98E-07
   0     10    11.395    12.201    0.41E-04    0.11E-05    0.82E-07
 Optimization of the real space projectors (new method)

 maximal supplied QI-value         = 16.25
 optimisation between [QCUT,QGAM] = [ 11.38, 22.75] = [ 36.24,144.96] Ry 
 Optimized for a Real-space Cutoff    1.47 Angstroem

   l    n(q)    QCUT    max X(q) W(low)/X(q) W(high)/X(q)  e(spline) 
   1     10    11.376     4.946    0.88E-04    0.16E-03    0.15E-06
   1     10    11.376     5.991    0.13E-03    0.24E-03    0.21E-06
   2      9    11.376    46.947    0.87E-04    0.91E-04    0.20E-06
   2      9    11.376    42.928    0.91E-04    0.94E-04    0.20E-06
   0     10    11.376    68.324    0.58E-04    0.21E-04    0.82E-07
   0     10    11.376    36.926    0.52E-04    0.19E-04    0.78E-07
 Optimization of the real space projectors (new method)

 maximal supplied QI-value         = 12.09
 optimisation between [QCUT,QGAM] = [ 11.37, 22.86] = [ 36.19,146.31] Ry 
 Optimized for a Real-space Cutoff    1.66 Angstroem

   l    n(q)    QCUT    max X(q) W(low)/X(q) W(high)/X(q)  e(spline) 
   0     11    11.369   106.980    0.13E-03    0.70E-04    0.20E-05
   0     11    11.369    81.086    0.14E-03    0.77E-04    0.22E-05
   1     11    11.369    53.097    0.15E-03    0.30E-03    0.86E-06
   1     11    11.369    32.621    0.14E-03    0.28E-03    0.81E-06
   2     10    11.369     8.820    0.13E-03    0.44E-04    0.34E-06
  PAW_PBE Fe_pv 02Aug2007               :
 energy of atom  1       EATOM=-2457.4239
 kinetic energy error for atom=    0.0069 (will be added to EATOM!!)
  PAW_PBE Co_pv 23Apr2009               :
 energy of atom  2       EATOM=-2948.1334
 kinetic energy error for atom=    0.0060 (will be added to EATOM!!)
    PAW_PBE In 08Apr2002                :
 energy of atom  3       EATOM=  -53.7908
 kinetic energy error for atom=    0.0000 (will be added to EATOM!!)
 
 
 POSCAR: Heusler tetragonGa
  positions in direct lattice
  velocities in cartesian coordinates
 exchange correlation table for  LEXCH =        8
   RHO(1)=    0.500       N(1)  =     2000
   RHO(2)=  100.500       N(2)  =     4000
 


--------------------------------------------------------------------------------------------------------


 ion  position               nearest neighbor table
   1  0.000  0.500  0.500-   5 2.60   6 2.60   7 2.60   8 2.60  13 2.63  14 2.63  15 2.63  16 2.63

   2  0.000  0.000  0.500-   5 2.60   6 2.60   7 2.60   8 2.60  13 2.63  14 2.63  15 2.63  16 2.63

   3  0.500  0.500  0.500-   5 2.60   6 2.60   7 2.60   8 2.60  13 2.63  14 2.63  15 2.63  16 2.63

   4  0.500  0.000  0.500-   5 2.60   6 2.60   7 2.60   8 2.60  13 2.63  14 2.63  15 2.63  16 2.63

   5  0.250  0.750  0.250-   9 2.60  10 2.60  11 2.60  12 2.60   1 2.60   2 2.60   3 2.60   4 2.60

   6  0.750  0.250  0.250-   9 2.60  10 2.60  11 2.60  12 2.60   1 2.60   2 2.60   3 2.60   4 2.60

   7  0.250  0.250  0.750-   9 2.60  10 2.60  11 2.60  12 2.60   1 2.60   2 2.60   3 2.60   4 2.60

   8  0.750  0.750  0.750-   9 2.60  10 2.60  11 2.60  12 2.60   1 2.60   2 2.60   3 2.60   4 2.60

   9  0.500  0.500  0.000-  13 2.57  14 2.57  15 2.57  16 2.57   5 2.60   6 2.60   7 2.60   8 2.60

  10  0.000  0.000  0.000-  13 2.57  14 2.57  15 2.57  16 2.57   5 2.60   6 2.60   7 2.60   8 2.60

  11  0.500  0.000  0.000-  13 2.57  14 2.57  15 2.57  16 2.57   5 2.60   6 2.60   7 2.60   8 2.60

  12  0.000  0.500  0.000-  13 2.57  14 2.57  15 2.57  16 2.57   5 2.60   6 2.60   7 2.60   8 2.60

  13  0.250  0.250  0.242-   9 2.57  10 2.57  11 2.57  12 2.57   1 2.63   2 2.63   3 2.63   4 2.63

  14  0.250  0.750  0.758-   9 2.57  10 2.57  11 2.57  12 2.57   1 2.63   2 2.63   3 2.63   4 2.63

  15  0.750  0.750  0.242-   9 2.57  10 2.57  11 2.57  12 2.57   1 2.63   2 2.63   3 2.63   4 2.63

  16  0.750  0.250  0.758-   9 2.57  10 2.57  11 2.57  12 2.57   1 2.63   2 2.63   3 2.63   4 2.63

 
  LATTYP: Found a simple tetragonal cell.
 ALAT       =     5.9491623084
 C/A-ratio  =     1.0299497044
  
  Lattice vectors:
  
 A1 = (   5.9491623084,   0.0000000000,   0.0000000000)
 A2 = (   0.0000000000,   5.9491623084,   0.0000000000)
 A3 = (   0.0000000000,   0.0000000000,   6.1273379611)


Analysis of symmetry for initial positions (statically):
=====================================================================
 Subroutine PRICEL returns following result:
 
  LATTYP: Found a simple tetragonal cell.
 ALAT       =     4.2066930107
 C/A-ratio  =     1.4565688405
  
  Lattice vectors:
  
 A1 = (   2.9745811542,  -2.9745811542,   0.0000000000)
 A2 = (   2.9745811542,   2.9745811542,   0.0000000000)
 A3 = (   0.0000000000,   0.0000000000,   6.1273379611)
 
   2 primitive cells build up your supercell.
 

 Routine SETGRP: Setting up the symmetry group for a 
 simple tetragonal supercell.


 Subroutine GETGRP returns: Found 16 space group operations
 (whereof  8 operations were pure point group operations)
 out of a pool of 16 trial point group operations.


The static configuration has the point symmetry D_2d.
 The point group associated with its full space group is D_4h.


Analysis of symmetry for dynamics (positions and initial velocities):
=====================================================================
 Subroutine PRICEL returns following result:
 
  LATTYP: Found a simple tetragonal cell.
 ALAT       =     4.2066930107
 C/A-ratio  =     1.4565688405
  
  Lattice vectors:
  
 A1 = (   2.9745811542,  -2.9745811542,   0.0000000000)
 A2 = (   2.9745811542,   2.9745811542,   0.0000000000)
 A3 = (   0.0000000000,   0.0000000000,   6.1273379611)
 
   2 primitive cells build up your supercell.
 

 Routine SETGRP: Setting up the symmetry group for a 
 simple tetragonal supercell.


 Subroutine GETGRP returns: Found 16 space group operations
 (whereof  8 operations were pure point group operations)
 out of a pool of 16 trial point group operations.


The dynamic configuration has the point symmetry D_2d.
 The point group associated with its full space group is D_4h.


Analysis of structural, dynamic, and magnetic symmetry:
=====================================================================
 Subroutine PRICEL returns following result:
 
  LATTYP: Found a simple tetragonal cell.
 ALAT       =     4.2066930107
 C/A-ratio  =     1.4565688405
  
  Lattice vectors:
  
 A1 = (   2.9745811542,  -2.9745811542,   0.0000000000)
 A2 = (   2.9745811542,   2.9745811542,   0.0000000000)
 A3 = (   0.0000000000,   0.0000000000,   6.1273379611)
 
   2 primitive cells build up your supercell.
 

 Routine SETGRP: Setting up the symmetry group for a 
 simple tetragonal supercell.


 Subroutine GETGRP returns: Found 16 space group operations
 (whereof  8 operations were pure point group operations)
 out of a pool of 16 trial point group operations.


The overall configuration has the point symmetry D_2d.
 The point group associated with its full space group is D_4h.


 Subroutine INISYM returns: Found 16 space group operations
 (whereof  8 operations are pure point group operations),
 and found     2 'primitive' translations


----------------------------------------------------------------------------------------

                                     Primitive cell                                     

  volume of cell :     108.4310

  direct lattice vectors                    reciprocal lattice vectors
     2.974581154 -2.974581154  0.000000000     0.168090892 -0.168090892  0.000000000
     2.974581154  2.974581154  0.000000000     0.168090892  0.168090892  0.000000000
     0.000000000  0.000000000  6.127337961     0.000000000  0.000000000  0.163203010

  length of vectors
     4.206693011  4.206693011  6.127337961     0.237716419  0.237716419  0.163203010

  position of ions in fractional coordinates (direct lattice)
     0.500000000  0.500000000  0.500000000
     0.000000000  0.000000000  0.500000000
     0.500000000  0.000000000  0.249789461
     0.000000000  0.500000000  0.750210539
     0.000000000  0.000000000  0.000000000
     0.500000000  0.500000000  0.000000000
     0.000000000  0.500000000  0.242243349
     0.500000000  0.000000000  0.757756651

  ion indices of the primitive-cell ions
   primitive index   ion index
                 1           1
                 2           2
                 3           5
                 4           7
                 5           9
                 6          12
                 7          13
                 8          14

----------------------------------------------------------------------------------------

 
 
 KPOINTS: Ni7CoMn5CrSn2                           

Automatic generation of k-mesh.
 Grid dimensions read from file:
 generate k-points for:   15   15   15

 Generating k-lattice:

  Cartesian coordinates                     Fractional coordinates (reciprocal lattice)
     0.011206059  0.000000000  0.000000000     0.066666667  0.000000000  0.000000000
     0.000000000  0.011206059  0.000000000     0.000000000  0.066666667  0.000000000
     0.000000000  0.000000000  0.010880201     0.000000000  0.000000000  0.066666667

  Length of vectors
     0.011206059  0.011206059  0.010880201

  Shift w.r.t. Gamma in fractional coordinates (k-lattice)
     0.000000000  0.000000000  0.000000000

 
 Subroutine IBZKPT returns following result:
 ===========================================
 
 Found    288 irreducible k-points:
 
 Following reciprocal coordinates:
            Coordinates               Weight
  0.000000  0.000000  0.000000      1.000000
  0.066667  0.000000  0.000000      4.000000
  0.133333  0.000000  0.000000      4.000000
  0.200000  0.000000  0.000000      4.000000
  0.266667  0.000000  0.000000      4.000000
  0.333333  0.000000  0.000000      4.000000
  0.400000  0.000000  0.000000      4.000000
  0.466667  0.000000  0.000000      4.000000
  0.066667  0.066667  0.000000      4.000000
  0.133333  0.066667  0.000000      8.000000
  0.200000  0.066667  0.000000      8.000000
  0.266667  0.066667  0.000000      8.000000
  0.333333  0.066667  0.000000      8.000000
  0.400000  0.066667  0.000000      8.000000
  0.466667  0.066667  0.000000      8.000000
  0.133333  0.133333  0.000000      4.000000
  0.200000  0.133333  0.000000      8.000000
  0.266667  0.133333  0.000000      8.000000
  0.333333  0.133333  0.000000      8.000000
  0.400000  0.133333  0.000000      8.000000
  0.466667  0.133333  0.000000      8.000000
  0.200000  0.200000  0.000000      4.000000
  0.266667  0.200000  0.000000      8.000000
  0.333333  0.200000  0.000000      8.000000
  0.400000  0.200000  0.000000      8.000000
  0.466667  0.200000  0.000000      8.000000
  0.266667  0.266667  0.000000      4.000000
  0.333333  0.266667  0.000000      8.000000
  0.400000  0.266667  0.000000      8.000000
  0.466667  0.266667  0.000000      8.000000
  0.333333  0.333333  0.000000      4.000000
  0.400000  0.333333  0.000000      8.000000
  0.466667  0.333333  0.000000      8.000000
  0.400000  0.400000  0.000000      4.000000
  0.466667  0.400000  0.000000      8.000000
  0.466667  0.466667  0.000000      4.000000
  0.000000  0.000000  0.066667      2.000000
  0.066667  0.000000  0.066667      8.000000
  0.133333  0.000000  0.066667      8.000000
  0.200000  0.000000  0.066667      8.000000
  0.266667  0.000000  0.066667      8.000000
  0.333333  0.000000  0.066667      8.000000
  0.400000  0.000000  0.066667      8.000000
  0.466667  0.000000  0.066667      8.000000
  0.066667  0.066667  0.066667      8.000000
  0.133333  0.066667  0.066667     16.000000
  0.200000  0.066667  0.066667     16.000000
  0.266667  0.066667  0.066667     16.000000
  0.333333  0.066667  0.066667     16.000000
  0.400000  0.066667  0.066667     16.000000
  0.466667  0.066667  0.066667     16.000000
  0.133333  0.133333  0.066667      8.000000
  0.200000  0.133333  0.066667     16.000000
  0.266667  0.133333  0.066667     16.000000
  0.333333  0.133333  0.066667     16.000000
  0.400000  0.133333  0.066667     16.000000
  0.466667  0.133333  0.066667     16.000000
  0.200000  0.200000  0.066667      8.000000
  0.266667  0.200000  0.066667     16.000000
  0.333333  0.200000  0.066667     16.000000
  0.400000  0.200000  0.066667     16.000000
  0.466667  0.200000  0.066667     16.000000
  0.266667  0.266667  0.066667      8.000000
  0.333333  0.266667  0.066667     16.000000
  0.400000  0.266667  0.066667     16.000000
  0.466667  0.266667  0.066667     16.000000
  0.333333  0.333333  0.066667      8.000000
  0.400000  0.333333  0.066667     16.000000
  0.466667  0.333333  0.066667     16.000000
  0.400000  0.400000  0.066667      8.000000
  0.466667  0.400000  0.066667     16.000000
  0.466667  0.466667  0.066667      8.000000
  0.000000  0.000000  0.133333      2.000000
  0.066667  0.000000  0.133333      8.000000
  0.133333  0.000000  0.133333      8.000000
  0.200000  0.000000  0.133333      8.000000
  0.266667  0.000000  0.133333      8.000000
  0.333333  0.000000  0.133333      8.000000
  0.400000  0.000000  0.133333      8.000000
  0.466667  0.000000  0.133333      8.000000
  0.066667  0.066667  0.133333      8.000000
  0.133333  0.066667  0.133333     16.000000
  0.200000  0.066667  0.133333     16.000000
  0.266667  0.066667  0.133333     16.000000
  0.333333  0.066667  0.133333     16.000000
  0.400000  0.066667  0.133333     16.000000
  0.466667  0.066667  0.133333     16.000000
  0.133333  0.133333  0.133333      8.000000
  0.200000  0.133333  0.133333     16.000000
  0.266667  0.133333  0.133333     16.000000
  0.333333  0.133333  0.133333     16.000000
  0.400000  0.133333  0.133333     16.000000
  0.466667  0.133333  0.133333     16.000000
  0.200000  0.200000  0.133333      8.000000
  0.266667  0.200000  0.133333     16.000000
  0.333333  0.200000  0.133333     16.000000
  0.400000  0.200000  0.133333     16.000000
  0.466667  0.200000  0.133333     16.000000
  0.266667  0.266667  0.133333      8.000000
  0.333333  0.266667  0.133333     16.000000
  0.400000  0.266667  0.133333     16.000000
  0.466667  0.266667  0.133333     16.000000
  0.333333  0.333333  0.133333      8.000000
  0.400000  0.333333  0.133333     16.000000
  0.466667  0.333333  0.133333     16.000000
  0.400000  0.400000  0.133333      8.000000
  0.466667  0.400000  0.133333     16.000000
  0.466667  0.466667  0.133333      8.000000
  0.000000  0.000000  0.200000      2.000000
  0.066667  0.000000  0.200000      8.000000
  0.133333  0.000000  0.200000      8.000000
  0.200000  0.000000  0.200000      8.000000
  0.266667  0.000000  0.200000      8.000000
  0.333333  0.000000  0.200000      8.000000
  0.400000  0.000000  0.200000      8.000000
  0.466667  0.000000  0.200000      8.000000
  0.066667  0.066667  0.200000      8.000000
  0.133333  0.066667  0.200000     16.000000
  0.200000  0.066667  0.200000     16.000000
  0.266667  0.066667  0.200000     16.000000
  0.333333  0.066667  0.200000     16.000000
  0.400000  0.066667  0.200000     16.000000
  0.466667  0.066667  0.200000     16.000000
  0.133333  0.133333  0.200000      8.000000
  0.200000  0.133333  0.200000     16.000000
  0.266667  0.133333  0.200000     16.000000
  0.333333  0.133333  0.200000     16.000000
  0.400000  0.133333  0.200000     16.000000
  0.466667  0.133333  0.200000     16.000000
  0.200000  0.200000  0.200000      8.000000
  0.266667  0.200000  0.200000     16.000000
  0.333333  0.200000  0.200000     16.000000
  0.400000  0.200000  0.200000     16.000000
  0.466667  0.200000  0.200000     16.000000
  0.266667  0.266667  0.200000      8.000000
  0.333333  0.266667  0.200000     16.000000
  0.400000  0.266667  0.200000     16.000000
  0.466667  0.266667  0.200000     16.000000
  0.333333  0.333333  0.200000      8.000000
  0.400000  0.333333  0.200000     16.000000
  0.466667  0.333333  0.200000     16.000000
  0.400000  0.400000  0.200000      8.000000
  0.466667  0.400000  0.200000     16.000000
  0.466667  0.466667  0.200000      8.000000
  0.000000  0.000000  0.266667      2.000000
  0.066667  0.000000  0.266667      8.000000
  0.133333  0.000000  0.266667      8.000000
  0.200000  0.000000  0.266667      8.000000
  0.266667  0.000000  0.266667      8.000000
  0.333333  0.000000  0.266667      8.000000
  0.400000  0.000000  0.266667      8.000000
  0.466667  0.000000  0.266667      8.000000
  0.066667  0.066667  0.266667      8.000000
  0.133333  0.066667  0.266667     16.000000
  0.200000  0.066667  0.266667     16.000000
  0.266667  0.066667  0.266667     16.000000
  0.333333  0.066667  0.266667     16.000000
  0.400000  0.066667  0.266667     16.000000
  0.466667  0.066667  0.266667     16.000000
  0.133333  0.133333  0.266667      8.000000
  0.200000  0.133333  0.266667     16.000000
  0.266667  0.133333  0.266667     16.000000
  0.333333  0.133333  0.266667     16.000000
  0.400000  0.133333  0.266667     16.000000
  0.466667  0.133333  0.266667     16.000000
  0.200000  0.200000  0.266667      8.000000
  0.266667  0.200000  0.266667     16.000000
  0.333333  0.200000  0.266667     16.000000
  0.400000  0.200000  0.266667     16.000000
  0.466667  0.200000  0.266667     16.000000
  0.266667  0.266667  0.266667      8.000000
  0.333333  0.266667  0.266667     16.000000
  0.400000  0.266667  0.266667     16.000000
  0.466667  0.266667  0.266667     16.000000
  0.333333  0.333333  0.266667      8.000000
  0.400000  0.333333  0.266667     16.000000
  0.466667  0.333333  0.266667     16.000000
  0.400000  0.400000  0.266667      8.000000
  0.466667  0.400000  0.266667     16.000000
  0.466667  0.466667  0.266667      8.000000
  0.000000  0.000000  0.333333      2.000000
  0.066667  0.000000  0.333333      8.000000
  0.133333  0.000000  0.333333      8.000000
  0.200000  0.000000  0.333333      8.000000
  0.266667  0.000000  0.333333      8.000000
  0.333333  0.000000  0.333333      8.000000
  0.400000  0.000000  0.333333      8.000000
  0.466667  0.000000  0.333333      8.000000
  0.066667  0.066667  0.333333      8.000000
  0.133333  0.066667  0.333333     16.000000
  0.200000  0.066667  0.333333     16.000000
  0.266667  0.066667  0.333333     16.000000
  0.333333  0.066667  0.333333     16.000000
  0.400000  0.066667  0.333333     16.000000
  0.466667  0.066667  0.333333     16.000000
  0.133333  0.133333  0.333333      8.000000
  0.200000  0.133333  0.333333     16.000000
  0.266667  0.133333  0.333333     16.000000
  0.333333  0.133333  0.333333     16.000000
  0.400000  0.133333  0.333333     16.000000
  0.466667  0.133333  0.333333     16.000000
  0.200000  0.200000  0.333333      8.000000
  0.266667  0.200000  0.333333     16.000000
  0.333333  0.200000  0.333333     16.000000
  0.400000  0.200000  0.333333     16.000000
  0.466667  0.200000  0.333333     16.000000
  0.266667  0.266667  0.333333      8.000000
  0.333333  0.266667  0.333333     16.000000
  0.400000  0.266667  0.333333     16.000000
  0.466667  0.266667  0.333333     16.000000
  0.333333  0.333333  0.333333      8.000000
  0.400000  0.333333  0.333333     16.000000
  0.466667  0.333333  0.333333     16.000000
  0.400000  0.400000  0.333333      8.000000
  0.466667  0.400000  0.333333     16.000000
  0.466667  0.466667  0.333333      8.000000
  0.000000  0.000000  0.400000      2.000000
  0.066667  0.000000  0.400000      8.000000
  0.133333  0.000000  0.400000      8.000000
  0.200000  0.000000  0.400000      8.000000
  0.266667  0.000000  0.400000      8.000000
  0.333333  0.000000  0.400000      8.000000
  0.400000  0.000000  0.400000      8.000000
  0.466667  0.000000  0.400000      8.000000
  0.066667  0.066667  0.400000      8.000000
  0.133333  0.066667  0.400000     16.000000
  0.200000  0.066667  0.400000     16.000000
  0.266667  0.066667  0.400000     16.000000
  0.333333  0.066667  0.400000     16.000000
  0.400000  0.066667  0.400000     16.000000
  0.466667  0.066667  0.400000     16.000000
  0.133333  0.133333  0.400000      8.000000
  0.200000  0.133333  0.400000     16.000000
  0.266667  0.133333  0.400000     16.000000
  0.333333  0.133333  0.400000     16.000000
  0.400000  0.133333  0.400000     16.000000
  0.466667  0.133333  0.400000     16.000000
  0.200000  0.200000  0.400000      8.000000
  0.266667  0.200000  0.400000     16.000000
  0.333333  0.200000  0.400000     16.000000
  0.400000  0.200000  0.400000     16.000000
  0.466667  0.200000  0.400000     16.000000
  0.266667  0.266667  0.400000      8.000000
  0.333333  0.266667  0.400000     16.000000
  0.400000  0.266667  0.400000     16.000000
  0.466667  0.266667  0.400000     16.000000
  0.333333  0.333333  0.400000      8.000000
  0.400000  0.333333  0.400000     16.000000
  0.466667  0.333333  0.400000     16.000000
  0.400000  0.400000  0.400000      8.000000
  0.466667  0.400000  0.400000     16.000000
  0.466667  0.466667  0.400000      8.000000
  0.000000  0.000000  0.466667      2.000000
  0.066667  0.000000  0.466667      8.000000
  0.133333  0.000000  0.466667      8.000000
  0.200000  0.000000  0.466667      8.000000
  0.266667  0.000000  0.466667      8.000000
  0.333333  0.000000  0.466667      8.000000
  0.400000  0.000000  0.466667      8.000000
  0.466667  0.000000  0.466667      8.000000
  0.066667  0.066667  0.466667      8.000000
  0.133333  0.066667  0.466667     16.000000
  0.200000  0.066667  0.466667     16.000000
  0.266667  0.066667  0.466667     16.000000
  0.333333  0.066667  0.466667     16.000000
  0.400000  0.066667  0.466667     16.000000
  0.466667  0.066667  0.466667     16.000000
  0.133333  0.133333  0.466667      8.000000
  0.200000  0.133333  0.466667     16.000000
  0.266667  0.133333  0.466667     16.000000
  0.333333  0.133333  0.466667     16.000000
  0.400000  0.133333  0.466667     16.000000
  0.466667  0.133333  0.466667     16.000000
  0.200000  0.200000  0.466667      8.000000
  0.266667  0.200000  0.466667     16.000000
  0.333333  0.200000  0.466667     16.000000
  0.400000  0.200000  0.466667     16.000000
  0.466667  0.200000  0.466667     16.000000
  0.266667  0.266667  0.466667      8.000000
  0.333333  0.266667  0.466667     16.000000
  0.400000  0.266667  0.466667     16.000000
  0.466667  0.266667  0.466667     16.000000
  0.333333  0.333333  0.466667      8.000000
  0.400000  0.333333  0.466667     16.000000
  0.466667  0.333333  0.466667     16.000000
  0.400000  0.400000  0.466667      8.000000
  0.466667  0.400000  0.466667     16.000000
  0.466667  0.466667  0.466667      8.000000
 
 Following cartesian coordinates:
            Coordinates               Weight
  0.000000  0.000000  0.000000      1.000000
  0.067797  0.000000  0.000000      4.000000
  0.135593  0.000000  0.000000      4.000000
  0.203390  0.000000  0.000000      4.000000
  0.271187  0.000000  0.000000      4.000000
  0.338983  0.000000  0.000000      4.000000
  0.406780  0.000000  0.000000      4.000000
  0.474577  0.000000  0.000000      4.000000
  0.067797  0.067797  0.000000      4.000000
  0.135593  0.067797  0.000000      8.000000
  0.203390  0.067797  0.000000      8.000000
  0.271187  0.067797  0.000000      8.000000
  0.338983  0.067797  0.000000      8.000000
  0.406780  0.067797  0.000000      8.000000
  0.474577  0.067797  0.000000      8.000000
  0.135593  0.135593  0.000000      4.000000
  0.203390  0.135593  0.000000      8.000000
  0.271187  0.135593  0.000000      8.000000
  0.338983  0.135593  0.000000      8.000000
  0.406780  0.135593  0.000000      8.000000
  0.474577  0.135593  0.000000      8.000000
  0.203390  0.203390  0.000000      4.000000
  0.271187  0.203390  0.000000      8.000000
  0.338983  0.203390  0.000000      8.000000
  0.406780  0.203390  0.000000      8.000000
  0.474577  0.203390  0.000000      8.000000
  0.271187  0.271187  0.000000      4.000000
  0.338983  0.271187  0.000000      8.000000
  0.406780  0.271187  0.000000      8.000000
  0.474577  0.271187  0.000000      8.000000
  0.338983  0.338983  0.000000      4.000000
  0.406780  0.338983  0.000000      8.000000
  0.474577  0.338983  0.000000      8.000000
  0.406780  0.406780  0.000000      4.000000
  0.474577  0.406780  0.000000      8.000000
  0.474577  0.474577  0.000000      4.000000
  0.000000  0.000000  0.065825      2.000000
  0.067797  0.000000  0.065825      8.000000
  0.135593  0.000000  0.065825      8.000000
  0.203390  0.000000  0.065825      8.000000
  0.271187  0.000000  0.065825      8.000000
  0.338983  0.000000  0.065825      8.000000
  0.406780  0.000000  0.065825      8.000000
  0.474577  0.000000  0.065825      8.000000
  0.067797  0.067797  0.065825      8.000000
  0.135593  0.067797  0.065825     16.000000
  0.203390  0.067797  0.065825     16.000000
  0.271187  0.067797  0.065825     16.000000
  0.338983  0.067797  0.065825     16.000000
  0.406780  0.067797  0.065825     16.000000
  0.474577  0.067797  0.065825     16.000000
  0.135593  0.135593  0.065825      8.000000
  0.203390  0.135593  0.065825     16.000000
  0.271187  0.135593  0.065825     16.000000
  0.338983  0.135593  0.065825     16.000000
  0.406780  0.135593  0.065825     16.000000
  0.474577  0.135593  0.065825     16.000000
  0.203390  0.203390  0.065825      8.000000
  0.271187  0.203390  0.065825     16.000000
  0.338983  0.203390  0.065825     16.000000
  0.406780  0.203390  0.065825     16.000000
  0.474577  0.203390  0.065825     16.000000
  0.271187  0.271187  0.065825      8.000000
  0.338983  0.271187  0.065825     16.000000
  0.406780  0.271187  0.065825     16.000000
  0.474577  0.271187  0.065825     16.000000
  0.338983  0.338983  0.065825      8.000000
  0.406780  0.338983  0.065825     16.000000
  0.474577  0.338983  0.065825     16.000000
  0.406780  0.406780  0.065825      8.000000
  0.474577  0.406780  0.065825     16.000000
  0.474577  0.474577  0.065825      8.000000
  0.000000  0.000000  0.131650      2.000000
  0.067797  0.000000  0.131650      8.000000
  0.135593  0.000000  0.131650      8.000000
  0.203390  0.000000  0.131650      8.000000
  0.271187  0.000000  0.131650      8.000000
  0.338983  0.000000  0.131650      8.000000
  0.406780  0.000000  0.131650      8.000000
  0.474577  0.000000  0.131650      8.000000
  0.067797  0.067797  0.131650      8.000000
  0.135593  0.067797  0.131650     16.000000
  0.203390  0.067797  0.131650     16.000000
  0.271187  0.067797  0.131650     16.000000
  0.338983  0.067797  0.131650     16.000000
  0.406780  0.067797  0.131650     16.000000
  0.474577  0.067797  0.131650     16.000000
  0.135593  0.135593  0.131650      8.000000
  0.203390  0.135593  0.131650     16.000000
  0.271187  0.135593  0.131650     16.000000
  0.338983  0.135593  0.131650     16.000000
  0.406780  0.135593  0.131650     16.000000
  0.474577  0.135593  0.131650     16.000000
  0.203390  0.203390  0.131650      8.000000
  0.271187  0.203390  0.131650     16.000000
  0.338983  0.203390  0.131650     16.000000
  0.406780  0.203390  0.131650     16.000000
  0.474577  0.203390  0.131650     16.000000
  0.271187  0.271187  0.131650      8.000000
  0.338983  0.271187  0.131650     16.000000
  0.406780  0.271187  0.131650     16.000000
  0.474577  0.271187  0.131650     16.000000
  0.338983  0.338983  0.131650      8.000000
  0.406780  0.338983  0.131650     16.000000
  0.474577  0.338983  0.131650     16.000000
  0.406780  0.406780  0.131650      8.000000
  0.474577  0.406780  0.131650     16.000000
  0.474577  0.474577  0.131650      8.000000
  0.000000  0.000000  0.197476      2.000000
  0.067797  0.000000  0.197476      8.000000
  0.135593  0.000000  0.197476      8.000000
  0.203390  0.000000  0.197476      8.000000
  0.271187  0.000000  0.197476      8.000000
  0.338983  0.000000  0.197476      8.000000
  0.406780  0.000000  0.197476      8.000000
  0.474577  0.000000  0.197476      8.000000
  0.067797  0.067797  0.197476      8.000000
  0.135593  0.067797  0.197476     16.000000
  0.203390  0.067797  0.197476     16.000000
  0.271187  0.067797  0.197476     16.000000
  0.338983  0.067797  0.197476     16.000000
  0.406780  0.067797  0.197476     16.000000
  0.474577  0.067797  0.197476     16.000000
  0.135593  0.135593  0.197476      8.000000
  0.203390  0.135593  0.197476     16.000000
  0.271187  0.135593  0.197476     16.000000
  0.338983  0.135593  0.197476     16.000000
  0.406780  0.135593  0.197476     16.000000
  0.474577  0.135593  0.197476     16.000000
  0.203390  0.203390  0.197476      8.000000
  0.271187  0.203390  0.197476     16.000000
  0.338983  0.203390  0.197476     16.000000
  0.406780  0.203390  0.197476     16.000000
  0.474577  0.203390  0.197476     16.000000
  0.271187  0.271187  0.197476      8.000000
  0.338983  0.271187  0.197476     16.000000
  0.406780  0.271187  0.197476     16.000000
  0.474577  0.271187  0.197476     16.000000
  0.338983  0.338983  0.197476      8.000000
  0.406780  0.338983  0.197476     16.000000
  0.474577  0.338983  0.197476     16.000000
  0.406780  0.406780  0.197476      8.000000
  0.474577  0.406780  0.197476     16.000000
  0.474577  0.474577  0.197476      8.000000
  0.000000  0.000000  0.263301      2.000000
  0.067797  0.000000  0.263301      8.000000
  0.135593  0.000000  0.263301      8.000000
  0.203390  0.000000  0.263301      8.000000
  0.271187  0.000000  0.263301      8.000000
  0.338983  0.000000  0.263301      8.000000
  0.406780  0.000000  0.263301      8.000000
  0.474577  0.000000  0.263301      8.000000
  0.067797  0.067797  0.263301      8.000000
  0.135593  0.067797  0.263301     16.000000
  0.203390  0.067797  0.263301     16.000000
  0.271187  0.067797  0.263301     16.000000
  0.338983  0.067797  0.263301     16.000000
  0.406780  0.067797  0.263301     16.000000
  0.474577  0.067797  0.263301     16.000000
  0.135593  0.135593  0.263301      8.000000
  0.203390  0.135593  0.263301     16.000000
  0.271187  0.135593  0.263301     16.000000
  0.338983  0.135593  0.263301     16.000000
  0.406780  0.135593  0.263301     16.000000
  0.474577  0.135593  0.263301     16.000000
  0.203390  0.203390  0.263301      8.000000
  0.271187  0.203390  0.263301     16.000000
  0.338983  0.203390  0.263301     16.000000
  0.406780  0.203390  0.263301     16.000000
  0.474577  0.203390  0.263301     16.000000
  0.271187  0.271187  0.263301      8.000000
  0.338983  0.271187  0.263301     16.000000
  0.406780  0.271187  0.263301     16.000000
  0.474577  0.271187  0.263301     16.000000
  0.338983  0.338983  0.263301      8.000000
  0.406780  0.338983  0.263301     16.000000
  0.474577  0.338983  0.263301     16.000000
  0.406780  0.406780  0.263301      8.000000
  0.474577  0.406780  0.263301     16.000000
  0.474577  0.474577  0.263301      8.000000
  0.000000  0.000000  0.329126      2.000000
  0.067797  0.000000  0.329126      8.000000
  0.135593  0.000000  0.329126      8.000000
  0.203390  0.000000  0.329126      8.000000
  0.271187  0.000000  0.329126      8.000000
  0.338983  0.000000  0.329126      8.000000
  0.406780  0.000000  0.329126      8.000000
  0.474577  0.000000  0.329126      8.000000
  0.067797  0.067797  0.329126      8.000000
  0.135593  0.067797  0.329126     16.000000
  0.203390  0.067797  0.329126     16.000000
  0.271187  0.067797  0.329126     16.000000
  0.338983  0.067797  0.329126     16.000000
  0.406780  0.067797  0.329126     16.000000
  0.474577  0.067797  0.329126     16.000000
  0.135593  0.135593  0.329126      8.000000
  0.203390  0.135593  0.329126     16.000000
  0.271187  0.135593  0.329126     16.000000
  0.338983  0.135593  0.329126     16.000000
  0.406780  0.135593  0.329126     16.000000
  0.474577  0.135593  0.329126     16.000000
  0.203390  0.203390  0.329126      8.000000
  0.271187  0.203390  0.329126     16.000000
  0.338983  0.203390  0.329126     16.000000
  0.406780  0.203390  0.329126     16.000000
  0.474577  0.203390  0.329126     16.000000
  0.271187  0.271187  0.329126      8.000000
  0.338983  0.271187  0.329126     16.000000
  0.406780  0.271187  0.329126     16.000000
  0.474577  0.271187  0.329126     16.000000
  0.338983  0.338983  0.329126      8.000000
  0.406780  0.338983  0.329126     16.000000
  0.474577  0.338983  0.329126     16.000000
  0.406780  0.406780  0.329126      8.000000
  0.474577  0.406780  0.329126     16.000000
  0.474577  0.474577  0.329126      8.000000
  0.000000  0.000000  0.394951      2.000000
  0.067797  0.000000  0.394951      8.000000
  0.135593  0.000000  0.394951      8.000000
  0.203390  0.000000  0.394951      8.000000
  0.271187  0.000000  0.394951      8.000000
  0.338983  0.000000  0.394951      8.000000
  0.406780  0.000000  0.394951      8.000000
  0.474577  0.000000  0.394951      8.000000
  0.067797  0.067797  0.394951      8.000000
  0.135593  0.067797  0.394951     16.000000
  0.203390  0.067797  0.394951     16.000000
  0.271187  0.067797  0.394951     16.000000
  0.338983  0.067797  0.394951     16.000000
  0.406780  0.067797  0.394951     16.000000
  0.474577  0.067797  0.394951     16.000000
  0.135593  0.135593  0.394951      8.000000
  0.203390  0.135593  0.394951     16.000000
  0.271187  0.135593  0.394951     16.000000
  0.338983  0.135593  0.394951     16.000000
  0.406780  0.135593  0.394951     16.000000
  0.474577  0.135593  0.394951     16.000000
  0.203390  0.203390  0.394951      8.000000
  0.271187  0.203390  0.394951     16.000000
  0.338983  0.203390  0.394951     16.000000
  0.406780  0.203390  0.394951     16.000000
  0.474577  0.203390  0.394951     16.000000
  0.271187  0.271187  0.394951      8.000000
  0.338983  0.271187  0.394951     16.000000
  0.406780  0.271187  0.394951     16.000000
  0.474577  0.271187  0.394951     16.000000
  0.338983  0.338983  0.394951      8.000000
  0.406780  0.338983  0.394951     16.000000
  0.474577  0.338983  0.394951     16.000000
  0.406780  0.406780  0.394951      8.000000
  0.474577  0.406780  0.394951     16.000000
  0.474577  0.474577  0.394951      8.000000
  0.000000  0.000000  0.460776      2.000000
  0.067797  0.000000  0.460776      8.000000
  0.135593  0.000000  0.460776      8.000000
  0.203390  0.000000  0.460776      8.000000
  0.271187  0.000000  0.460776      8.000000
  0.338983  0.000000  0.460776      8.000000
  0.406780  0.000000  0.460776      8.000000
  0.474577  0.000000  0.460776      8.000000
  0.067797  0.067797  0.460776      8.000000
  0.135593  0.067797  0.460776     16.000000
  0.203390  0.067797  0.460776     16.000000
  0.271187  0.067797  0.460776     16.000000
  0.338983  0.067797  0.460776     16.000000
  0.406780  0.067797  0.460776     16.000000
  0.474577  0.067797  0.460776     16.000000
  0.135593  0.135593  0.460776      8.000000
  0.203390  0.135593  0.460776     16.000000
  0.271187  0.135593  0.460776     16.000000
  0.338983  0.135593  0.460776     16.000000
  0.406780  0.135593  0.460776     16.000000
  0.474577  0.135593  0.460776     16.000000
  0.203390  0.203390  0.460776      8.000000
  0.271187  0.203390  0.460776     16.000000
  0.338983  0.203390  0.460776     16.000000
  0.406780  0.203390  0.460776     16.000000
  0.474577  0.203390  0.460776     16.000000
  0.271187  0.271187  0.460776      8.000000
  0.338983  0.271187  0.460776     16.000000
  0.406780  0.271187  0.460776     16.000000
  0.474577  0.271187  0.460776     16.000000
  0.338983  0.338983  0.460776      8.000000
  0.406780  0.338983  0.460776     16.000000
  0.474577  0.338983  0.460776     16.000000
  0.406780  0.406780  0.460776      8.000000
  0.474577  0.406780  0.460776     16.000000
  0.474577  0.474577  0.460776      8.000000
 


--------------------------------------------------------------------------------------------------------




 Dimension of arrays:
   k-points           NKPTS =    288   k-points in BZ     NKDIM =    288   number of bands    NBANDS=    125
   number of dos      NEDOS =   1500   number of ions     NIONS =     16
   non local maximal  LDIM  =      6   non local SUM 2l+1 LMDIM =     18
   total plane-waves  NPLWV = 110592
   max r-space proj   IRMAX =   9811   max aug-charges    IRDMAX= 460383
   dimension x,y,z NGX =    48 NGY =   48 NGZ =   48
   dimension x,y,z NGXF=    96 NGYF=   96 NGZF=   96
   support grid    NGXF=   192 NGYF=  192 NGZF=  192
   ions per type =               8   4   4
   NGX,Y,Z   is equivalent  to a cutoff of  13.41, 13.41, 13.02 a.u.
   NGXF,Y,Z  is equivalent  to a cutoff of  26.83, 26.83, 26.05 a.u.

 SYSTEM =  NiCoMnGa                                
 POSCAR =  Heusler tetragonGa                      

 Startparameter for this run:
   NWRITE =      2    write-flag & timer
   PREC   = accura    normal or accurate (medium, high low for compatibility)
   ISTART =      0    job   : 0-new  1-cont  2-samecut
   ICHARG =      2    charge: 1-file 2-atom 10-const
   ISPIN  =      2    spin polarized calculation?
   LNONCOLLINEAR =      F non collinear calculations
   LSORBIT =      F    spin-orbit coupling
   INIWAV =      1    electr: 0-lowe 1-rand  2-diag
   LASPH  =      F    aspherical Exc in radial PAW
   METAGGA=      F    non-selfconsistent MetaGGA calc.

 Electronic Relaxation 1
   ENCUT  =  500.0 eV  36.75 Ry    6.06 a.u.  10.85 10.85 11.17*2*pi/ulx,y,z
   ENINI  =  500.0     initial cutoff
   ENAUG  =  578.3 eV  augmentation charge cutoff
   NELM   =    160;   NELMIN=  2; NELMDL= -6     # of ELM steps 
   EDIFF  = 0.1E-05   stopping-criterion for ELM
   LREAL  =      T    real-space projection
   NLSPLINE    = F    spline interpolate recip. space projectors
   LCOMPAT=      F    compatible to vasp.4.4
   GGA_COMPAT  = T    GGA compatible to vasp.4.4-vasp.4.6
   LMAXPAW     = -100 max onsite density
   LMAXMIX     =    6 max onsite mixed and CHGCAR
   VOSKOWN=      0    Vosko Wilk Nusair interpolation
   ROPT   =   -0.00025  -0.00025  -0.00025
 Ionic relaxation
   EDIFFG = -.5E-02   stopping-criterion for IOM
   NSW    =      0    number of steps for IOM
   NBLOCK =      1;   KBLOCK =      1    inner block; outer block 
   IBRION =     -1    ionic relax: 0-MD 1-quasi-New 2-CG
   NFREE  =      1    steps in history (QN), initial steepest desc. (CG)
   ISIF   =      3    stress and relaxation
   IWAVPR =     10    prediction:  0-non 1-charg 2-wave 3-comb
   ISYM   =      2    0-nonsym 1-usesym 2-fastsym
   LCORR  =      T    Harris-Foulkes like correction to forces

   POTIM  = 0.0100    time-step for ionic-motion
   TEIN   =    0.0    initial temperature
   TEBEG  =    0.0;   TEEND  =   0.0 temperature during run
   SMASS  =  -3.00    Nose mass-parameter (am)
   estimated Nose-frequenzy (Omega)   =  0.10E-29 period in steps = 0.63E+48 mass=  -0.809E-27a.u.
   SCALEE = 1.0000    scale energy and forces
   NPACO  =    256;   APACO  = 16.0  distance and # of slots for P.C.
   PSTRESS=    0.0 pullay stress

  Mass of Ions in am
   POMASS =  55.85 58.93114.82
  Ionic Valenz
   ZVAL   =  14.00 15.00  3.00
  Atomic Wigner-Seitz radii
   RWIGS  =   1.16  1.16  1.16
  virtual crystal weights 
   VCA    =   1.00  1.00  1.00
   NELECT =     184.0000    total number of electrons
   NUPDOWN=      -1.0000    fix difference up-down

 DOS related values:
   EMIN   =  10.00;   EMAX   =-10.00  energy-range for DOS
   EFERMI =   0.00
   ISMEAR =     1;   SIGMA  =   0.10  broadening in eV -4-tet -1-fermi 0-gaus

 Electronic relaxation 2 (details)
   IALGO  =     38    algorithm
   LDIAG  =      T    sub-space diagonalisation (order eigenvalues)
   LSUBROT=      F    optimize rotation matrix (better conditioning)
   TURBO    =      0    0=normal 1=particle mesh
   IRESTART =      0    0=no restart 2=restart with 2 vectors
   NREBOOT  =      0    no. of reboots
   NMIN     =      0    reboot dimension
   EREF     =   0.00    reference energy to select bands
   IMIX   =      4    mixing-type and parameters
     AMIX     =   0.18;   BMIX     =  0.00
     AMIX_MAG =   0.26;   BMIX_MAG =  0.01
     AMIN     =   0.10
     WC   =   100.;   INIMIX=   1;  MIXPRE=   1;  MAXMIX= -45

 Intra band minimization:
   WEIMIN = 0.0000     energy-eigenvalue tresh-hold
   EBREAK =  0.20E-08  absolut break condition
   DEPER  =   0.30     relativ break condition  

   TIME   =   0.40     timestep for ELM

  volume/ion in A,a.u.               =      13.55        91.47
  Fermi-wavevector in a.u.,A,eV,Ry     =   1.549838  2.928769 32.681161  2.401998
  Thomas-Fermi vector in A             =   2.654587
 
 Write flags
   LWAVE        =      F    write WAVECAR
   LDOWNSAMPLE  =      F    k-point downsampling of WAVECAR
   LCHARG       =      T    write CHGCAR
   LVTOT        =      F    write LOCPOT, total local potential
   LVHAR        =      F    write LOCPOT, Hartree potential only
   LELF         =      F    write electronic localiz. function (ELF)
   LORBIT       =     10    0 simple, 1 ext, 2 COOP (PROOUT), +10 PAW based schemes


 Dipole corrections
   LMONO  =      F    monopole corrections only (constant potential shift)
   LDIPOL =      F    correct potential (dipole corrections)
   IDIPOL =      0    1-x, 2-y, 3-z, 4-all directions 
   EPSILON=  1.0000000 bulk dielectric constant

 Exchange correlation treatment:
   GGA     =    --    GGA type
   LEXCH   =     8    internal setting for exchange type
   VOSKOWN=      0    Vosko Wilk Nusair interpolation
   LHFCALC =     F    Hartree Fock is set to
   LHFONE  =     F    Hartree Fock one center treatment
   AEXX    =    0.0000 exact exchange contribution

 Linear response parameters
   LEPSILON=     F    determine dielectric tensor
   LRPA    =     F    only Hartree local field effects (RPA)
   LNABLA  =     F    use nabla operator in PAW spheres
   LVEL    =     F    velocity operator in full k-point grid
   LINTERFAST=   F  fast interpolation
   KINTER  =     0    interpolate to denser k-point grid
   CSHIFT  =0.1000    complex shift for real part using Kramers Kronig
   OMEGAMAX=  -1.0    maximum frequency
   DEG_THRESHOLD= 0.2000000E-02 threshold for treating states as degnerate
   RTIME   =   -0.100 relaxation time in fs
  (WPLASMAI=    0.000 imaginary part of plasma frequency in eV, 0.658/RTIME)
   DFIELD  = 0.0000000 0.0000000 0.0000000 field for delta impulse in time
 
 Orbital magnetization related:
   ORBITALMAG=     F  switch on orbital magnetization
   LCHIMAG   =     F  perturbation theory with respect to B field
   DQ        =  0.001000  dq finite difference perturbation B field
   LLRAUG    =     F  two centre corrections for induced B field



--------------------------------------------------------------------------------------------------------


 Static calculation
 charge density and potential will be updated during run
 spin polarized calculation
 Variant of blocked Davidson
 Davidson routine will perform the subspace rotation
 perform sub-space diagonalisation
    after iterative eigenvector-optimisation
 modified Broyden-mixing scheme, WC =      100.0
 initial mixing is a Kerker type mixing with AMIX =  0.1800 and BMIX =      0.0025
 Hartree-type preconditioning will be used
 using additional bands           33
 real space projection scheme for non local part
 use partial core corrections
 calculate Harris-corrections to forces 
   (improved forces if not selfconsistent)
 use gradient corrections 
 use of overlap-Matrix (Vanderbilt PP)
 Methfessel and Paxton  Order N= 1 SIGMA  =   0.10


--------------------------------------------------------------------------------------------------------


  energy-cutoff  :      500.00
  volume of cell :      216.86
      direct lattice vectors                 reciprocal lattice vectors
     5.949162308  0.000000000  0.000000000     0.168090892  0.000000000  0.000000000
     0.000000000  5.949162308  0.000000000     0.000000000  0.168090892  0.000000000
     0.000000000  0.000000000  6.127337961     0.000000000  0.000000000  0.163203010

  length of vectors
     5.949162308  5.949162308  6.127337961     0.168090892  0.168090892  0.163203010


 
 k-points in units of 2pi/SCALE and weight: Ni7CoMn5CrSn2                           
   0.00000000  0.00000000  0.00000000       0.000
   0.06779666  0.00000000  0.00000000       0.001
   0.13559332  0.00000000  0.00000000       0.001
   0.20338998  0.00000000  0.00000000       0.001
   0.27118664  0.00000000  0.00000000       0.001
   0.33898330  0.00000000  0.00000000       0.001
   0.40677996  0.00000000  0.00000000       0.001
   0.47457662  0.00000000  0.00000000       0.001
   0.06779666  0.06779666  0.00000000       0.001
   0.13559332  0.06779666  0.00000000       0.002
   0.20338998  0.06779666  0.00000000       0.002
   0.27118664  0.06779666  0.00000000       0.002
   0.33898330  0.06779666  0.00000000       0.002
   0.40677996  0.06779666  0.00000000       0.002
   0.47457662  0.06779666  0.00000000       0.002
   0.13559332  0.13559332  0.00000000       0.001
   0.20338998  0.13559332  0.00000000       0.002
   0.27118664  0.13559332  0.00000000       0.002
   0.33898330  0.13559332  0.00000000       0.002
   0.40677996  0.13559332  0.00000000       0.002
   0.47457662  0.13559332  0.00000000       0.002
   0.20338998  0.20338998  0.00000000       0.001
   0.27118664  0.20338998  0.00000000       0.002
   0.33898330  0.20338998  0.00000000       0.002
   0.40677996  0.20338998  0.00000000       0.002
   0.47457662  0.20338998  0.00000000       0.002
   0.27118664  0.27118664  0.00000000       0.001
   0.33898330  0.27118664  0.00000000       0.002
   0.40677996  0.27118664  0.00000000       0.002
   0.47457662  0.27118664  0.00000000       0.002
   0.33898330  0.33898330  0.00000000       0.001
   0.40677996  0.33898330  0.00000000       0.002
   0.47457662  0.33898330  0.00000000       0.002
   0.40677996  0.40677996  0.00000000       0.001
   0.47457662  0.40677996  0.00000000       0.002
   0.47457662  0.47457662  0.00000000       0.001
   0.00000000  0.00000000  0.06582521       0.001
   0.06779666  0.00000000  0.06582521       0.002
   0.13559332  0.00000000  0.06582521       0.002
   0.20338998  0.00000000  0.06582521       0.002
   0.27118664  0.00000000  0.06582521       0.002
   0.33898330  0.00000000  0.06582521       0.002
   0.40677996  0.00000000  0.06582521       0.002
   0.47457662  0.00000000  0.06582521       0.002
   0.06779666  0.06779666  0.06582521       0.002
   0.13559332  0.06779666  0.06582521       0.005
   0.20338998  0.06779666  0.06582521       0.005
   0.27118664  0.06779666  0.06582521       0.005
   0.33898330  0.06779666  0.06582521       0.005
   0.40677996  0.06779666  0.06582521       0.005
   0.47457662  0.06779666  0.06582521       0.005
   0.13559332  0.13559332  0.06582521       0.002
   0.20338998  0.13559332  0.06582521       0.005
   0.27118664  0.13559332  0.06582521       0.005
   0.33898330  0.13559332  0.06582521       0.005
   0.40677996  0.13559332  0.06582521       0.005
   0.47457662  0.13559332  0.06582521       0.005
   0.20338998  0.20338998  0.06582521       0.002
   0.27118664  0.20338998  0.06582521       0.005
   0.33898330  0.20338998  0.06582521       0.005
   0.40677996  0.20338998  0.06582521       0.005
   0.47457662  0.20338998  0.06582521       0.005
   0.27118664  0.27118664  0.06582521       0.002
   0.33898330  0.27118664  0.06582521       0.005
   0.40677996  0.27118664  0.06582521       0.005
   0.47457662  0.27118664  0.06582521       0.005
   0.33898330  0.33898330  0.06582521       0.002
   0.40677996  0.33898330  0.06582521       0.005
   0.47457662  0.33898330  0.06582521       0.005
   0.40677996  0.40677996  0.06582521       0.002
   0.47457662  0.40677996  0.06582521       0.005
   0.47457662  0.47457662  0.06582521       0.002
   0.00000000  0.00000000  0.13165043       0.001
   0.06779666  0.00000000  0.13165043       0.002
   0.13559332  0.00000000  0.13165043       0.002
   0.20338998  0.00000000  0.13165043       0.002
   0.27118664  0.00000000  0.13165043       0.002
   0.33898330  0.00000000  0.13165043       0.002
   0.40677996  0.00000000  0.13165043       0.002
   0.47457662  0.00000000  0.13165043       0.002
   0.06779666  0.06779666  0.13165043       0.002
   0.13559332  0.06779666  0.13165043       0.005
   0.20338998  0.06779666  0.13165043       0.005
   0.27118664  0.06779666  0.13165043       0.005
   0.33898330  0.06779666  0.13165043       0.005
   0.40677996  0.06779666  0.13165043       0.005
   0.47457662  0.06779666  0.13165043       0.005
   0.13559332  0.13559332  0.13165043       0.002
   0.20338998  0.13559332  0.13165043       0.005
   0.27118664  0.13559332  0.13165043       0.005
   0.33898330  0.13559332  0.13165043       0.005
   0.40677996  0.13559332  0.13165043       0.005
   0.47457662  0.13559332  0.13165043       0.005
   0.20338998  0.20338998  0.13165043       0.002
   0.27118664  0.20338998  0.13165043       0.005
   0.33898330  0.20338998  0.13165043       0.005
   0.40677996  0.20338998  0.13165043       0.005
   0.47457662  0.20338998  0.13165043       0.005
   0.27118664  0.27118664  0.13165043       0.002
   0.33898330  0.27118664  0.13165043       0.005
   0.40677996  0.27118664  0.13165043       0.005
   0.47457662  0.27118664  0.13165043       0.005
   0.33898330  0.33898330  0.13165043       0.002
   0.40677996  0.33898330  0.13165043       0.005
   0.47457662  0.33898330  0.13165043       0.005
   0.40677996  0.40677996  0.13165043       0.002
   0.47457662  0.40677996  0.13165043       0.005
   0.47457662  0.47457662  0.13165043       0.002
   0.00000000  0.00000000  0.19747564       0.001
   0.06779666  0.00000000  0.19747564       0.002
   0.13559332  0.00000000  0.19747564       0.002
   0.20338998  0.00000000  0.19747564       0.002
   0.27118664  0.00000000  0.19747564       0.002
   0.33898330  0.00000000  0.19747564       0.002
   0.40677996  0.00000000  0.19747564       0.002
   0.47457662  0.00000000  0.19747564       0.002
   0.06779666  0.06779666  0.19747564       0.002
   0.13559332  0.06779666  0.19747564       0.005
   0.20338998  0.06779666  0.19747564       0.005
   0.27118664  0.06779666  0.19747564       0.005
   0.33898330  0.06779666  0.19747564       0.005
   0.40677996  0.06779666  0.19747564       0.005
   0.47457662  0.06779666  0.19747564       0.005
   0.13559332  0.13559332  0.19747564       0.002
   0.20338998  0.13559332  0.19747564       0.005
   0.27118664  0.13559332  0.19747564       0.005
   0.33898330  0.13559332  0.19747564       0.005
   0.40677996  0.13559332  0.19747564       0.005
   0.47457662  0.13559332  0.19747564       0.005
   0.20338998  0.20338998  0.19747564       0.002
   0.27118664  0.20338998  0.19747564       0.005
   0.33898330  0.20338998  0.19747564       0.005
   0.40677996  0.20338998  0.19747564       0.005
   0.47457662  0.20338998  0.19747564       0.005
   0.27118664  0.27118664  0.19747564       0.002
   0.33898330  0.27118664  0.19747564       0.005
   0.40677996  0.27118664  0.19747564       0.005
   0.47457662  0.27118664  0.19747564       0.005
   0.33898330  0.33898330  0.19747564       0.002
   0.40677996  0.33898330  0.19747564       0.005
   0.47457662  0.33898330  0.19747564       0.005
   0.40677996  0.40677996  0.19747564       0.002
   0.47457662  0.40677996  0.19747564       0.005
   0.47457662  0.47457662  0.19747564       0.002
   0.00000000  0.00000000  0.26330086       0.001
   0.06779666  0.00000000  0.26330086       0.002
   0.13559332  0.00000000  0.26330086       0.002
   0.20338998  0.00000000  0.26330086       0.002
   0.27118664  0.00000000  0.26330086       0.002
   0.33898330  0.00000000  0.26330086       0.002
   0.40677996  0.00000000  0.26330086       0.002
   0.47457662  0.00000000  0.26330086       0.002
   0.06779666  0.06779666  0.26330086       0.002
   0.13559332  0.06779666  0.26330086       0.005
   0.20338998  0.06779666  0.26330086       0.005
   0.27118664  0.06779666  0.26330086       0.005
   0.33898330  0.06779666  0.26330086       0.005
   0.40677996  0.06779666  0.26330086       0.005
   0.47457662  0.06779666  0.26330086       0.005
   0.13559332  0.13559332  0.26330086       0.002
   0.20338998  0.13559332  0.26330086       0.005
   0.27118664  0.13559332  0.26330086       0.005
   0.33898330  0.13559332  0.26330086       0.005
   0.40677996  0.13559332  0.26330086       0.005
   0.47457662  0.13559332  0.26330086       0.005
   0.20338998  0.20338998  0.26330086       0.002
   0.27118664  0.20338998  0.26330086       0.005
   0.33898330  0.20338998  0.26330086       0.005
   0.40677996  0.20338998  0.26330086       0.005
   0.47457662  0.20338998  0.26330086       0.005
   0.27118664  0.27118664  0.26330086       0.002
   0.33898330  0.27118664  0.26330086       0.005
   0.40677996  0.27118664  0.26330086       0.005
   0.47457662  0.27118664  0.26330086       0.005
   0.33898330  0.33898330  0.26330086       0.002
   0.40677996  0.33898330  0.26330086       0.005
   0.47457662  0.33898330  0.26330086       0.005
   0.40677996  0.40677996  0.26330086       0.002
   0.47457662  0.40677996  0.26330086       0.005
   0.47457662  0.47457662  0.26330086       0.002
   0.00000000  0.00000000  0.32912607       0.001
   0.06779666  0.00000000  0.32912607       0.002
   0.13559332  0.00000000  0.32912607       0.002
   0.20338998  0.00000000  0.32912607       0.002
   0.27118664  0.00000000  0.32912607       0.002
   0.33898330  0.00000000  0.32912607       0.002
   0.40677996  0.00000000  0.32912607       0.002
   0.47457662  0.00000000  0.32912607       0.002
   0.06779666  0.06779666  0.32912607       0.002
   0.13559332  0.06779666  0.32912607       0.005
   0.20338998  0.06779666  0.32912607       0.005
   0.27118664  0.06779666  0.32912607       0.005
   0.33898330  0.06779666  0.32912607       0.005
   0.40677996  0.06779666  0.32912607       0.005
   0.47457662  0.06779666  0.32912607       0.005
   0.13559332  0.13559332  0.32912607       0.002
   0.20338998  0.13559332  0.32912607       0.005
   0.27118664  0.13559332  0.32912607       0.005
   0.33898330  0.13559332  0.32912607       0.005
   0.40677996  0.13559332  0.32912607       0.005
   0.47457662  0.13559332  0.32912607       0.005
   0.20338998  0.20338998  0.32912607       0.002
   0.27118664  0.20338998  0.32912607       0.005
   0.33898330  0.20338998  0.32912607       0.005
   0.40677996  0.20338998  0.32912607       0.005
   0.47457662  0.20338998  0.32912607       0.005
   0.27118664  0.27118664  0.32912607       0.002
   0.33898330  0.27118664  0.32912607       0.005
   0.40677996  0.27118664  0.32912607       0.005
   0.47457662  0.27118664  0.32912607       0.005
   0.33898330  0.33898330  0.32912607       0.002
   0.40677996  0.33898330  0.32912607       0.005
   0.47457662  0.33898330  0.32912607       0.005
   0.40677996  0.40677996  0.32912607       0.002
   0.47457662  0.40677996  0.32912607       0.005
   0.47457662  0.47457662  0.32912607       0.002
   0.00000000  0.00000000  0.39495128       0.001
   0.06779666  0.00000000  0.39495128       0.002
   0.13559332  0.00000000  0.39495128       0.002
   0.20338998  0.00000000  0.39495128       0.002
   0.27118664  0.00000000  0.39495128       0.002
   0.33898330  0.00000000  0.39495128       0.002
   0.40677996  0.00000000  0.39495128       0.002
   0.47457662  0.00000000  0.39495128       0.002
   0.06779666  0.06779666  0.39495128       0.002
   0.13559332  0.06779666  0.39495128       0.005
   0.20338998  0.06779666  0.39495128       0.005
   0.27118664  0.06779666  0.39495128       0.005
   0.33898330  0.06779666  0.39495128       0.005
   0.40677996  0.06779666  0.39495128       0.005
   0.47457662  0.06779666  0.39495128       0.005
   0.13559332  0.13559332  0.39495128       0.002
   0.20338998  0.13559332  0.39495128       0.005
   0.27118664  0.13559332  0.39495128       0.005
   0.33898330  0.13559332  0.39495128       0.005
   0.40677996  0.13559332  0.39495128       0.005
   0.47457662  0.13559332  0.39495128       0.005
   0.20338998  0.20338998  0.39495128       0.002
   0.27118664  0.20338998  0.39495128       0.005
   0.33898330  0.20338998  0.39495128       0.005
   0.40677996  0.20338998  0.39495128       0.005
   0.47457662  0.20338998  0.39495128       0.005
   0.27118664  0.27118664  0.39495128       0.002
   0.33898330  0.27118664  0.39495128       0.005
   0.40677996  0.27118664  0.39495128       0.005
   0.47457662  0.27118664  0.39495128       0.005
   0.33898330  0.33898330  0.39495128       0.002
   0.40677996  0.33898330  0.39495128       0.005
   0.47457662  0.33898330  0.39495128       0.005
   0.40677996  0.40677996  0.39495128       0.002
   0.47457662  0.40677996  0.39495128       0.005
   0.47457662  0.47457662  0.39495128       0.002
   0.00000000  0.00000000  0.46077650       0.001
   0.06779666  0.00000000  0.46077650       0.002
   0.13559332  0.00000000  0.46077650       0.002
   0.20338998  0.00000000  0.46077650       0.002
   0.27118664  0.00000000  0.46077650       0.002
   0.33898330  0.00000000  0.46077650       0.002
   0.40677996  0.00000000  0.46077650       0.002
   0.47457662  0.00000000  0.46077650       0.002
   0.06779666  0.06779666  0.46077650       0.002
   0.13559332  0.06779666  0.46077650       0.005
   0.20338998  0.06779666  0.46077650       0.005
   0.27118664  0.06779666  0.46077650       0.005
   0.33898330  0.06779666  0.46077650       0.005
   0.40677996  0.06779666  0.46077650       0.005
   0.47457662  0.06779666  0.46077650       0.005
   0.13559332  0.13559332  0.46077650       0.002
   0.20338998  0.13559332  0.46077650       0.005
   0.27118664  0.13559332  0.46077650       0.005
   0.33898330  0.13559332  0.46077650       0.005
   0.40677996  0.13559332  0.46077650       0.005
   0.47457662  0.13559332  0.46077650       0.005
   0.20338998  0.20338998  0.46077650       0.002
   0.27118664  0.20338998  0.46077650       0.005
   0.33898330  0.20338998  0.46077650       0.005
   0.40677996  0.20338998  0.46077650       0.005
   0.47457662  0.20338998  0.46077650       0.005
   0.27118664  0.27118664  0.46077650       0.002
   0.33898330  0.27118664  0.46077650       0.005
   0.40677996  0.27118664  0.46077650       0.005
   0.47457662  0.27118664  0.46077650       0.005
   0.33898330  0.33898330  0.46077650       0.002
   0.40677996  0.33898330  0.46077650       0.005
   0.47457662  0.33898330  0.46077650       0.005
   0.40677996  0.40677996  0.46077650       0.002
   0.47457662  0.40677996  0.46077650       0.005
   0.47457662  0.47457662  0.46077650       0.002
 
 k-points in reciprocal lattice and weights: Ni7CoMn5CrSn2                           
   0.00000000  0.00000000  0.00000000       0.000
   0.06666667  0.00000000  0.00000000       0.001
   0.13333333  0.00000000  0.00000000       0.001
   0.20000000  0.00000000  0.00000000       0.001
   0.26666667  0.00000000  0.00000000       0.001
   0.33333333  0.00000000  0.00000000       0.001
   0.40000000  0.00000000  0.00000000       0.001
   0.46666667  0.00000000  0.00000000       0.001
   0.06666667  0.06666667  0.00000000       0.001
   0.13333333  0.06666667  0.00000000       0.002
   0.20000000  0.06666667  0.00000000       0.002
   0.26666667  0.06666667  0.00000000       0.002
   0.33333333  0.06666667  0.00000000       0.002
   0.40000000  0.06666667  0.00000000       0.002
   0.46666667  0.06666667  0.00000000       0.002
   0.13333333  0.13333333  0.00000000       0.001
   0.20000000  0.13333333  0.00000000       0.002
   0.26666667  0.13333333  0.00000000       0.002
   0.33333333  0.13333333  0.00000000       0.002
   0.40000000  0.13333333  0.00000000       0.002
   0.46666667  0.13333333  0.00000000       0.002
   0.20000000  0.20000000  0.00000000       0.001
   0.26666667  0.20000000  0.00000000       0.002
   0.33333333  0.20000000  0.00000000       0.002
   0.40000000  0.20000000  0.00000000       0.002
   0.46666667  0.20000000  0.00000000       0.002
   0.26666667  0.26666667  0.00000000       0.001
   0.33333333  0.26666667  0.00000000       0.002
   0.40000000  0.26666667  0.00000000       0.002
   0.46666667  0.26666667  0.00000000       0.002
   0.33333333  0.33333333  0.00000000       0.001
   0.40000000  0.33333333  0.00000000       0.002
   0.46666667  0.33333333  0.00000000       0.002
   0.40000000  0.40000000  0.00000000       0.001
   0.46666667  0.40000000  0.00000000       0.002
   0.46666667  0.46666667  0.00000000       0.001
   0.00000000  0.00000000  0.06666667       0.001
   0.06666667  0.00000000  0.06666667       0.002
   0.13333333  0.00000000  0.06666667       0.002
   0.20000000  0.00000000  0.06666667       0.002
   0.26666667  0.00000000  0.06666667       0.002
   0.33333333  0.00000000  0.06666667       0.002
   0.40000000  0.00000000  0.06666667       0.002
   0.46666667  0.00000000  0.06666667       0.002
   0.06666667  0.06666667  0.06666667       0.002
   0.13333333  0.06666667  0.06666667       0.005
   0.20000000  0.06666667  0.06666667       0.005
   0.26666667  0.06666667  0.06666667       0.005
   0.33333333  0.06666667  0.06666667       0.005
   0.40000000  0.06666667  0.06666667       0.005
   0.46666667  0.06666667  0.06666667       0.005
   0.13333333  0.13333333  0.06666667       0.002
   0.20000000  0.13333333  0.06666667       0.005
   0.26666667  0.13333333  0.06666667       0.005
   0.33333333  0.13333333  0.06666667       0.005
   0.40000000  0.13333333  0.06666667       0.005
   0.46666667  0.13333333  0.06666667       0.005
[...]
    115      13.7777      0.00000
    116      13.9150      0.00000
    117      13.9371      0.00000
    118      14.0841      0.00000
    119      14.0984      0.00000
    120      14.0984      0.00000
    121      14.1831      0.00000
    122      14.3398      0.00000
    123      14.4464      0.00000
    124      14.4464      0.00000
    125      15.9919      0.00000


--------------------------------------------------------------------------------------------------------


 soft charge-density along one line, spin component           1
         0         1         2         3         4         5         6         7         8         9
 total charge-density along one line
 
 soft charge-density along one line, spin component           2
         0         1         2         3         4         5         6         7         8         9
 total charge-density along one line
 
 pseudopotential strength for first ion, spin component:           1
-45.670  -0.000   0.000   7.882   0.000  -0.000   0.000   0.000
 -0.000 -45.714  -0.000   0.000   7.899   0.000   0.012   0.000
  0.000  -0.000 -45.670  -0.000   0.000   7.882   0.000   0.012
  7.882   0.000  -0.000   5.579   0.000  -0.000  -0.000  -0.000
  0.000   7.899   0.000   0.000   5.576   0.000  -0.006  -0.000
 -0.000   0.000   7.882  -0.000   0.000   5.579  -0.000  -0.006
  0.000   0.012   0.000  -0.000  -0.006  -0.000  -2.706  -0.000
  0.000   0.000   0.012  -0.000  -0.000  -0.006  -0.000  -2.700
 -0.000   0.000  -0.000   0.000  -0.000   0.000   0.000   0.000
  0.012   0.000   0.000  -0.006  -0.000  -0.000  -0.000   0.000
 -0.000  -0.000   0.000   0.000   0.000  -0.000  -0.000   0.000
  0.000   0.012   0.000  -0.000  -0.006  -0.000  -3.211  -0.000
  0.000   0.000   0.012  -0.000  -0.000  -0.006  -0.000  -3.206
 -0.000   0.000  -0.000   0.000  -0.000   0.000   0.000   0.000
  0.012   0.000   0.000  -0.006  -0.000  -0.000  -0.000   0.000
 -0.000  -0.000   0.000   0.000   0.000  -0.000  -0.000   0.000
 -0.000  -0.000  -0.000  -0.000  -0.000  -0.000  -0.000   0.000
 -0.000  -0.000  -0.000  -0.000  -0.000  -0.000  -0.000   0.000
 pseudopotential strength for first ion, spin component:           2
-43.683  -0.000   0.000   7.046   0.000  -0.000   0.000   0.000
 -0.000 -43.706  -0.000   0.000   7.055   0.000  -0.013   0.000
  0.000  -0.000 -43.683  -0.000   0.000   7.046   0.000  -0.013
  7.046   0.000  -0.000   5.817   0.000  -0.000  -0.000  -0.000
  0.000   7.055   0.000   0.000   5.815   0.000   0.006  -0.000
 -0.000   0.000   7.046  -0.000   0.000   5.817  -0.000   0.006
  0.000  -0.013   0.000  -0.000   0.006  -0.000  -1.049  -0.000
  0.000   0.000  -0.013  -0.000  -0.000   0.006  -0.000  -1.093
 -0.000   0.000  -0.000   0.000  -0.000   0.000   0.000   0.000
 -0.013   0.000   0.000   0.006  -0.000  -0.000  -0.000   0.000
 -0.000  -0.000   0.000   0.000   0.000  -0.000  -0.000   0.000
  0.000  -0.013   0.000  -0.000   0.006  -0.000  -1.581  -0.000
  0.000   0.000  -0.013  -0.000  -0.000   0.006  -0.000  -1.624
 -0.000   0.000  -0.000   0.000  -0.000   0.000   0.000   0.000
 -0.013   0.000   0.000   0.006  -0.000  -0.000  -0.000   0.000
 -0.000  -0.000   0.000   0.000   0.000  -0.000  -0.000   0.000
 -0.000  -0.000  -0.000  -0.000  -0.000  -0.000  -0.000   0.000
 -0.000  -0.000  -0.000  -0.000  -0.000  -0.000  -0.000   0.000
 total augmentation occupancy for first ion, spin component:           1
  1.993   0.000   0.000  -0.022   0.000   0.000   0.000   0.000  -0.000  -0.004   0.000   0.000   0.000   0.000   0.004   0.000
  0.000   1.994   0.000   0.000  -0.021   0.000  -0.004   0.000   0.000  -0.000  -0.000   0.004   0.000   0.000   0.000   0.000
  0.000   0.000   1.993   0.000   0.000  -0.022   0.000  -0.004  -0.000   0.000  -0.000   0.000   0.004  -0.000   0.000  -0.000
 -0.022   0.000   0.000   0.161   0.000   0.000  -0.000   0.000   0.000  -0.031   0.000  -0.000  -0.000   0.000  -0.006   0.000
  0.000  -0.021   0.000  -0.000   0.155   0.000  -0.028   0.000   0.000  -0.000  -0.000  -0.006  -0.000  -0.000  -0.000  -0.000
  0.000   0.000  -0.022   0.000   0.000   0.161   0.000  -0.031   0.000   0.000   0.000   0.000  -0.006   0.000   0.000   0.000
 -0.000  -0.004   0.000   0.000  -0.028  -0.000   2.099  -0.000   0.000  -0.000  -0.000  -1.002   0.000  -0.000  -0.000  -0.000
 -0.000   0.000  -0.004   0.000  -0.000  -0.031   0.000   2.054  -0.000  -0.000  -0.000   0.000  -0.976  -0.000  -0.000   0.000
  0.000   0.000  -0.000   0.000   0.000   0.000   0.000   0.000   2.405   0.000   0.000  -0.000  -0.000  -1.225   0.000   0.000
 -0.004   0.000   0.000  -0.031   0.000   0.000   0.000  -0.000  -0.000   2.054   0.000   0.000  -0.000   0.000  -0.976  -0.000
  0.000  -0.000  -0.000  -0.000  -0.000  -0.000   0.000   0.000   0.000   0.000   2.316  -0.000   0.000  -0.000   0.000  -1.154
  0.000   0.004  -0.000   0.000  -0.006   0.000  -1.002   0.000  -0.000   0.000  -0.000   1.267   0.000   0.000   0.000  -0.000
  0.000   0.000   0.004   0.000   0.000  -0.006   0.000  -0.976   0.000   0.000  -0.000  -0.000   1.288  -0.000   0.000  -0.000
  0.000   0.000   0.000   0.000  -0.000  -0.000  -0.000  -0.000  -1.225   0.000   0.000   0.000   0.000   1.318   0.000  -0.000
  0.004   0.000   0.000  -0.006  -0.000  -0.000   0.000   0.000   0.000  -0.976  -0.000   0.000   0.000  -0.000   1.288  -0.000
 -0.000   0.000   0.000  -0.000  -0.000  -0.000   0.000  -0.000   0.000   0.000  -1.154  -0.000   0.000   0.000   0.000   1.318
  0.000   0.000  -0.000   0.000   0.000   0.000   0.000   0.000  -0.015  -0.000  -0.000  -0.000   0.000  -0.007  -0.000  -0.000
  0.000   0.000   0.000   0.000   0.000   0.000   0.000   0.000   0.005  -0.000   0.000   0.000   0.000  -0.001   0.000   0.000
 total augmentation occupancy for first ion, spin component:           2
 -0.002   0.000   0.000  -0.008   0.000   0.000  -0.000   0.000  -0.000  -0.009   0.000  -0.000   0.000  -0.000   0.009   0.000
  0.000  -0.002   0.000   0.000  -0.008   0.000  -0.009   0.000   0.000  -0.000   0.000   0.009  -0.000   0.000  -0.000  -0.000
  0.000   0.000  -0.002   0.000   0.000  -0.008   0.000  -0.009  -0.000  -0.000   0.000  -0.000   0.009   0.000   0.000   0.000
 -0.008   0.000   0.000  -0.010   0.000   0.000   0.000  -0.000   0.000   0.050  -0.000   0.000   0.000   0.000  -0.004   0.000
 -0.000  -0.008   0.000   0.000  -0.005   0.000   0.049   0.000  -0.000  -0.000   0.000  -0.006   0.000   0.000  -0.000   0.000
  0.000  -0.000  -0.008   0.000   0.000  -0.010   0.000   0.050  -0.000   0.000   0.000  -0.000  -0.004  -0.000   0.000   0.000
 -0.000  -0.009   0.000  -0.000   0.049   0.000   1.623   0.000  -0.000   0.000   0.000  -0.487   0.000   0.000   0.000   0.000
  0.000   0.000  -0.009  -0.000  -0.000   0.050   0.000   1.548   0.000   0.000   0.000   0.000  -0.472   0.000   0.000   0.000
 -0.000   0.000   0.000  -0.000  -0.000   0.000   0.000  -0.000   2.078   0.000   0.000  -0.000   0.000  -0.704   0.000   0.000
 -0.009  -0.000   0.000   0.050  -0.000  -0.000   0.000   0.000  -0.000   1.548   0.000   0.000  -0.000   0.000  -0.472   0.000
  0.000   0.000  -0.000   0.000   0.000  -0.000  -0.000   0.000   0.000   0.000   2.002  -0.000   0.000  -0.000  -0.000  -0.694
  0.000   0.009   0.000   0.000  -0.006   0.000  -0.487  -0.000  -0.000  -0.000   0.000  -0.107  -0.000   0.000  -0.000  -0.000
 -0.000   0.000   0.009   0.000   0.000  -0.004   0.000  -0.472   0.000   0.000   0.000   0.000  -0.107  -0.000   0.000   0.000
 -0.000   0.000   0.000   0.000   0.000  -0.000   0.000  -0.000  -0.704   0.000   0.000  -0.000  -0.000   0.010   0.000   0.000
  0.009   0.000  -0.000  -0.004   0.000  -0.000   0.000   0.000   0.000  -0.472   0.000  -0.000   0.000   0.000  -0.107   0.000
 -0.000  -0.000  -0.000  -0.000   0.000  -0.000   0.000  -0.000   0.000  -0.000  -0.694   0.000   0.000   0.000   0.000  -0.014
  0.000   0.000   0.000   0.000   0.000   0.000   0.000   0.000  -0.002   0.000   0.000   0.000  -0.000   0.020   0.000   0.000
  0.000   0.000  -0.000   0.000   0.000   0.000  -0.000  -0.000   0.004  -0.000  -0.000   0.000  -0.000  -0.002   0.000  -0.000


------------------------ aborting loop because EDIFF is reached ----------------------------------------





 total charge

# of ion       s       p       d       tot
------------------------------------------
    1        0.315   6.295   6.125  12.735
    2        0.315   6.295   6.125  12.735
    3        0.315   6.295   6.125  12.735
    4        0.315   6.295   6.125  12.735
    5        0.340   6.299   6.015  12.654
    6        0.340   6.299   6.015  12.654
    7        0.340   6.299   6.015  12.654
    8        0.340   6.299   6.015  12.654
    9        0.399   6.391   7.385  14.175
   10        0.399   6.391   7.385  14.175
   11        0.399   6.391   7.385  14.175
   12        0.399   6.391   7.385  14.175
   13        1.274   1.867   0.343   3.484
   14        1.274   1.867   0.343   3.484
   15        1.274   1.867   0.343   3.484
   16        1.274   1.867   0.343   3.484
--------------------------------------------------
tot          9.312  83.406  79.474 172.192



 magnetization (x)

# of ion       s       p       d       tot
------------------------------------------
    1        0.004  -0.019   2.370   2.354
    2        0.004  -0.019   2.370   2.354
    3        0.004  -0.019   2.370   2.354
    4        0.004  -0.019   2.370   2.354
    5        0.000  -0.017   2.707   2.690
    6        0.000  -0.017   2.707   2.690
    7        0.000  -0.017   2.707   2.690
    8        0.000  -0.017   2.707   2.690
    9       -0.007  -0.030   1.237   1.200
   10       -0.007  -0.030   1.237   1.200
   11       -0.007  -0.030   1.237   1.200
   12       -0.007  -0.030   1.237   1.200
   13       -0.018  -0.140  -0.020  -0.178
   14       -0.018  -0.140  -0.020  -0.178
   15       -0.018  -0.140  -0.020  -0.178
   16       -0.018  -0.140  -0.020  -0.178
--------------------------------------------------
tot         -0.083  -0.827  25.174  24.265
 
    CHARGE:  cpu time    4.5203: real time    4.5316
    FORLOC:  cpu time    0.0040: real time    0.0050
    FORNL :  cpu time   48.1990: real time   48.3581
    STRESS:  cpu time  144.7850: real time  145.2664
    FORCOR:  cpu time    0.0680: real time    0.0671
    FORHAR:  cpu time    0.0120: real time    0.0101
    MIXING:  cpu time    0.0000: real time    0.0027
    OFIELD:  cpu time    0.0000: real time    0.0001

  FORCE on cell =-STRESS in cart. coord.  units (eV):
  Direction    XX          YY          ZZ          XY          YZ          ZX
  --------------------------------------------------------------------------------------
  Alpha Z   961.58925   961.58925   961.58925
  Ewald   -6701.43687 -6701.43687 -6769.57090    -0.00000     0.00000     0.00000
  Hartree  3133.50222  3133.50222  3068.67121    -0.00000    -0.00000    -0.00000
  E(xc)   -1171.92931 -1171.92931 -1171.90670    -0.00000    -0.00000     0.00000
  Local     625.83242   625.83242   766.12895     0.00000     0.00000    -0.00000
  n-local  -238.40597  -236.54844  -237.62475    -0.30130    -0.86968     0.13077
  augment  1688.73299  1688.73299  1684.22576     0.00000     0.00002     0.00002
  Kinetic  1699.22995  1703.13211  1698.40400    -1.56861    -1.95975    -0.97675
  Fock        0.00000     0.00000     0.00000     0.00000     0.00000     0.00000
  -------------------------------------------------------------------------------------
  Total      -0.00548    -0.00548    -0.08318     0.00000    -0.00000     0.00000
  in kB      -0.04045    -0.04045    -0.61453     0.00000    -0.00000     0.00000
  external pressure =       -0.23 kB  Pullay stress =        0.00 kB


 VOLUME and BASIS-vectors are now :
 -----------------------------------------------------------------------------
  energy-cutoff  :      500.00
  volume of cell :      216.86
      direct lattice vectors                 reciprocal lattice vectors
     5.949162308  0.000000000  0.000000000     0.168090892  0.000000000  0.000000000
     0.000000000  5.949162308  0.000000000     0.000000000  0.168090892  0.000000000
     0.000000000  0.000000000  6.127337961     0.000000000  0.000000000  0.163203010

  length of vectors
     5.949162308  5.949162308  6.127337961     0.168090892  0.168090892  0.163203010


 FORCES acting on ions
    electron-ion (+dipol)            ewald-force                    non-local-force                 convergence-correction
 -----------------------------------------------------------------------------------------------
   0.382E-12 0.177E-11 0.180E-11   -.213E-13 0.000E+00 0.853E-13   0.434E-18 0.434E-18 0.000E+00   0.170E-12 -.251E-12 0.693E-12
   -.765E-12 -.853E-13 0.173E-11   -.497E-13 0.000E+00 0.000E+00   0.000E+00 0.542E-19 0.434E-18   -.188E-12 -.166E-12 0.506E-12
   0.116E-11 0.167E-11 0.817E-11   -.426E-13 0.000E+00 0.000E+00   0.000E+00 0.542E-19 0.434E-18   -.198E-12 -.328E-12 0.430E-12
   0.234E-11 -.932E-13 0.993E-11   -.142E-13 0.000E+00 0.853E-13   0.434E-18 0.434E-18 0.000E+00   0.928E-13 -.276E-12 0.749E-12
   0.775E-12 0.332E-11 -.632E+02   0.109E-12 0.285E-13 0.643E+02   -.339E-20 0.000E+00 -.117E+01   0.372E-13 0.359E-12 0.119E-02
   0.230E-11 0.119E-10 -.632E+02   0.531E-13 0.272E-13 0.643E+02   -.339E-20 0.000E+00 -.117E+01   -.248E-13 0.349E-12 0.119E-02
   0.781E-12 -.264E-11 0.632E+02   0.169E-12 -.518E-15 -.643E+02   0.000E+00 0.000E+00 0.117E+01   -.671E-13 0.218E-12 -.119E-02
   0.231E-11 0.409E-11 0.632E+02   0.142E-12 0.812E-15 -.643E+02   0.000E+00 0.000E+00 0.117E+01   -.649E-13 0.358E-12 -.119E-02
   -.283E-11 0.194E-10 0.118E-10   -.639E-13 -.711E-14 -.497E-13   0.434E-18 0.434E-18 0.867E-18   0.113E-12 -.425E-12 0.302E-12
   -.505E-11 -.884E-13 -.177E-12   -.711E-13 -.711E-14 -.497E-13   0.434E-18 0.434E-18 0.867E-18   0.185E-12 -.215E-12 0.302E-12
   0.677E-11 -.455E-13 0.327E-10   -.497E-13 -.355E-13 -.497E-13   -.434E-18 -.325E-18 0.000E+00   -.263E-12 -.342E-12 -.266E-13
   0.466E-11 0.200E-11 -.247E-12   -.497E-13 -.213E-13 -.497E-13   -.434E-18 -.325E-18 0.000E+00   -.196E-12 -.295E-12 -.262E-13
   -.189E-13 0.215E-12 -.203E+02   -.283E-13 0.695E-14 0.198E+02   0.217E-18 -.434E-18 0.477E+00   -.632E-15 -.163E-13 0.201E-03
   -.220E-13 -.122E-11 0.203E+02   -.355E-13 0.111E-15 -.198E+02   -.108E-18 0.217E-18 -.477E+00   0.118E-14 -.547E-14 -.201E-03
   -.369E-13 0.186E-11 -.203E+02   -.214E-13 0.727E-14 0.198E+02   0.217E-18 0.217E-18 0.477E+00   -.514E-14 -.848E-14 0.201E-03
   -.354E-13 -.146E-11 0.203E+02   -.215E-13 -.137E-15 -.198E+02   -.108E-18 0.217E-18 -.477E+00   -.362E-14 -.191E-13 -.201E-03
 -----------------------------------------------------------------------------------------------
   0.127E-10 0.406E-10 0.742E-10   0.309E-14 -.894E-15 0.853E-13   0.108E-17 0.141E-17 0.111E-15   -.412E-12 -.106E-11 0.890E-12
 
 
 POSITION                                       TOTAL-FORCE (eV/Angst)
 -----------------------------------------------------------------------------------
      0.00000      2.97458      3.06367         0.000000      0.000000     -0.000000
      0.00000      0.00000      3.06367        -0.000000     -0.000000      0.000000
      2.97458      2.97458      3.06367        -0.000000     -0.000000      0.000000
      2.97458      0.00000      3.06367         0.000000      0.000000      0.000000
      1.48729      4.46187      1.53054         0.000000     -0.000000     -0.001231
      4.46187      1.48729      1.53054        -0.000000      0.000000     -0.001231
      1.48729      1.48729      4.59679         0.000000      0.000000      0.001231
      4.46187      4.46187      4.59679        -0.000000     -0.000000      0.001231
      2.97458      2.97458      0.00000         0.000000     -0.000000     -0.000000
      0.00000      0.00000      0.00000        -0.000000     -0.000000      0.000000
      2.97458      0.00000      0.00000         0.000000      0.000000      0.000000
      0.00000      2.97458      0.00000         0.000000      0.000000     -0.000000
      1.48729      1.48729      1.48431        -0.000000     -0.000000     -0.004833
      1.48729      4.46187      4.64303         0.000000      0.000000      0.004833
      4.46187      4.46187      1.48431        -0.000000      0.000000     -0.004833
      4.46187      1.48729      4.64303         0.000000     -0.000000      0.004833
 -----------------------------------------------------------------------------------
    total drift:                                0.000000      0.000000      0.000000


--------------------------------------------------------------------------------------------------------



  FREE ENERGIE OF THE ION-ELECTRON SYSTEM (eV)
  ---------------------------------------------------
  free  energy   TOTEN  =      -102.24999099 eV

  energy  without entropy=     -102.25044523  energy(sigma->0) =     -102.25014240
 


--------------------------------------------------------------------------------------------------------


    POTLOK:  cpu time    0.4320: real time    0.4321


--------------------------------------------------------------------------------------------------------


     LOOP+:  cpu time 4393.1386: real time 4408.7328
    4ORBIT:  cpu time    0.0000: real time    0.0000



 total charge

# of ion       s       p       d       tot
------------------------------------------
    1        0.315   6.295   6.125  12.735
    2        0.315   6.295   6.125  12.735
    3        0.315   6.295   6.125  12.735
    4        0.315   6.295   6.125  12.735
    5        0.340   6.299   6.015  12.654
    6        0.340   6.299   6.015  12.654
    7        0.340   6.299   6.015  12.654
    8        0.340   6.299   6.015  12.654
    9        0.399   6.391   7.385  14.175
   10        0.399   6.391   7.385  14.175
   11        0.399   6.391   7.385  14.175
   12        0.399   6.391   7.385  14.175
   13        1.274   1.867   0.343   3.484
   14        1.274   1.867   0.343   3.484
   15        1.274   1.867   0.343   3.484
   16        1.274   1.867   0.343   3.484
--------------------------------------------------
tot          9.312  83.406  79.474 172.192



 magnetization (x)

# of ion       s       p       d       tot
------------------------------------------
    1        0.004  -0.019   2.370   2.354
    2        0.004  -0.019   2.370   2.354
    3        0.004  -0.019   2.370   2.354
    4        0.004  -0.019   2.370   2.354
    5        0.000  -0.017   2.707   2.690
    6        0.000  -0.017   2.707   2.690
    7        0.000  -0.017   2.707   2.690
    8        0.000  -0.017   2.707   2.690
    9       -0.007  -0.030   1.237   1.200
   10       -0.007  -0.030   1.237   1.200
   11       -0.007  -0.030   1.237   1.200
   12       -0.007  -0.030   1.237   1.200
   13       -0.018  -0.140  -0.020  -0.178
   14       -0.018  -0.140  -0.020  -0.178
   15       -0.018  -0.140  -0.020  -0.178
   16       -0.018  -0.140  -0.020  -0.178
--------------------------------------------------
tot         -0.083  -0.827  25.174  24.265
 

 total amount of memory used by VASP MPI-rank0   391129. kBytes
=======================================================================

   base      :      30000. kBytes
   nonlr-proj:       7267. kBytes
   fftplans  :       7544. kBytes
   grid      :       6354. kBytes
   one-center:        124. kBytes
   wavefun   :     339840. kBytes
 
  
  
 General timing and accounting informations for this job:
 ========================================================
  
                  Total CPU time used (sec):     4442.674
                            User time (sec):     4430.785
                          System time (sec):       11.889
                         Elapsed time (sec):     4458.697
  
                   Maximum memory used (kb):      466852.
                   Average memory used (kb):          N/A
  
                          Minor page faults:       365116
                          Major page faults:            0
                 Voluntary context switches:         3953
