 vasp.6.1.1 19Jun20 (build Jan 21 2021 08:43:03) complex                        
  
 executed on             LinuxIFC date 2023.04.01  03:59:18
 running on   80 total cores
 distrk:  each k-point on   80 cores,    1 groups
 distr:  one band on NCORE=  10 cores,    8 groups


--------------------------------------------------------------------------------------------------------


 INCAR:
 POTCAR:    PAW_PBE Fe_pv 02Aug2007               
 POTCAR:    PAW_PBE Co_pv 23Apr2009               
 POTCAR:       PAW_PBE Si 05Jan2001               
 POTCAR:    PAW_PBE Fe_pv 02Aug2007               
   VRHFIN =Fe:  3pd7s1                                                                              
   LEXCH  = PE                                                                                      
   EATOM  =  2457.4239 eV,  180.6156 Ry                                                             
                                                                                                    
   TITEL  = PAW_PBE Fe_pv 02Aug2007                                                                 
   LULTRA =        F    use ultrasoft PP ?                                                          
   IUNSCR =        1    unscreen: 0-lin 1-nonlin 2-no                                               
   RPACOR =    1.750    partial core radius                                                         
   POMASS =   55.847; ZVAL   =   14.000    mass and valenz                                          
   RCORE  =    2.200    outmost cutoff radius                                                       
   RWIGS  =    2.200; RWIGS  =    1.164    wigner-seitz radius (au A)                               
   ENMAX  =  293.238; ENMIN  =  219.928 eV                                                          
   ICORE  =        3    local potential                                                             
   LCOR   =        T    correct aug charges                                                         
   LPAW   =        T    paw PP                                                                      
   EAUG   =  578.342                                                                                
   DEXC   =    0.000                                                                                
   RMAX   =    2.249    core radius for proj-oper                                                   
   RAUG   =    1.300    factor for augmentation sphere                                              
   RDEP   =    2.296    radius for radial grids                                                     
   RDEPT  =    1.766    core radius for aug-charge                                                  
                                                                                                    
   Atomic configuration                                                                             
    8 entries                                                                                       
     n  l   j            E        occ.                                                              
     1  0  0.50     -6993.8440   2.0000                                                             
     2  0  0.50      -814.6047   2.0000                                                             
     2  1  1.50      -693.3689   6.0000                                                             
     3  0  0.50       -89.4732   2.0000                                                             
     3  1  1.50       -55.6373   6.0000                                                             
     3  2  2.50        -3.8151   7.0000                                                             
     4  0  0.50        -4.2551   1.0000                                                             
     4  3  2.50        -1.3606   0.0000                                                             
   Description                                                                                      
     l       E           TYP  RCUT    TYP  RCUT                                                     
     1    -55.6372668     23  2.000                                                                 
     1     -5.4423304     23  2.000                                                                 
     2     -3.8151096     23  2.200                                                                 
     2     -5.1756922     23  2.200                                                                 
     0     -4.2550951     23  2.200                                                                 
     0     27.2116520     23  2.200                                                                 
     3     -1.3605826     23  2.200                                                                 
  local pseudopotential read in
  partial core-charges read in
  partial kinetic energy density read in
  atomic valenz-charges read in
  non local Contribution for L=           1  read in
    real space projection operators read in
  non local Contribution for L=           1  read in
    real space projection operators read in
  non local Contribution for L=           2  read in
    real space projection operators read in
  non local Contribution for L=           2  read in
    real space projection operators read in
  non local Contribution for L=           0  read in
    real space projection operators read in
  non local Contribution for L=           0  read in
    real space projection operators read in
    PAW grid and wavefunctions read in
 
   number of l-projection  operators is LMAX  =           6
   number of lm-projection operators is LMMAX =          18
 
 POTCAR:    PAW_PBE Co_pv 23Apr2009               
   VRHFIN =Co: 3pd7s1                                                                               
   LEXCH  = PE                                                                                      
   EATOM  =  2948.1334 eV,  216.6817 Ry                                                             
                                                                                                    
   TITEL  = PAW_PBE Co_pv 23Apr2009                                                                 
   LULTRA =        F    use ultrasoft PP ?                                                          
   IUNSCR =        1    unscreen: 0-lin 1-nonlin 2-no                                               
   RPACOR =    2.000    partial core radius                                                         
   POMASS =   58.933; ZVAL   =   15.000    mass and valenz                                          
   RCORE  =    2.300    outmost cutoff radius                                                       
   RWIGS  =    2.460; RWIGS  =    1.302    wigner-seitz radius (au A)                               
   ENMAX  =  271.042; ENMIN  =  203.281 eV                                                          
   ICORE  =        3    local potential                                                             
   LCOR   =        T    correct aug charges                                                         
   LPAW   =        T    paw PP                                                                      
   EAUG   =  543.066                                                                                
   DEXC   =    0.000                                                                                
   RMAX   =    2.360    core radius for proj-oper                                                   
   RAUG   =    1.300    factor for augmentation sphere                                              
   RDEP   =    2.393    radius for radial grids                                                     
   RDEPT  =    1.841    core radius for aug-charge                                                  
                                                                                                    
   Atomic configuration                                                                             
    8 entries                                                                                       
     n  l   j            E        occ.                                                              
     1  0  0.50     -7587.6674   2.0000                                                             
     2  0  0.50      -893.6084   2.0000                                                             
     2  1  1.50      -764.5805   6.0000                                                             
     3  0  0.50       -97.5973   2.0000                                                             
     3  1  1.50       -60.9648   6.0000                                                             
     3  2  2.50        -4.2382   8.0000                                                             
     4  0  0.50        -4.3746   1.0000                                                             
     4  3  2.50        -1.3606   0.0000                                                             
   Description                                                                                      
     l       E           TYP  RCUT    TYP  RCUT                                                     
     1    -60.9647990     23  2.000                                                                 
     1     -5.4423304     23  2.000                                                                 
     2     -4.2382362     23  2.300                                                                 
     2     -5.5988188     23  2.300                                                                 
     0     -4.3745797     23  2.300                                                                 
     0      5.7660125     23  2.300                                                                 
     3     -1.3605826     23  2.300                                                                 
  local pseudopotential read in
  partial core-charges read in
  partial kinetic energy density read in
  atomic valenz-charges read in
  non local Contribution for L=           1  read in
    real space projection operators read in
  non local Contribution for L=           1  read in
    real space projection operators read in
  non local Contribution for L=           2  read in
    real space projection operators read in
  non local Contribution for L=           2  read in
    real space projection operators read in
  non local Contribution for L=           0  read in
    real space projection operators read in
  non local Contribution for L=           0  read in
    real space projection operators read in
    PAW grid and wavefunctions read in
 
   number of l-projection  operators is LMAX  =           6
   number of lm-projection operators is LMMAX =          18
 
 POTCAR:       PAW_PBE Si 05Jan2001               
   VRHFIN =Si: s2p2                                                                                 
   LEXCH  = PE                                                                                      
   EATOM  =   103.0669 eV,    7.5752 Ry                                                             
                                                                                                    
   TITEL  = PAW_PBE Si 05Jan2001                                                                    
   LULTRA =        F    use ultrasoft PP ?                                                          
   IUNSCR =        1    unscreen: 0-lin 1-nonlin 2-no                                               
   RPACOR =    1.500    partial core radius                                                         
   POMASS =   28.085; ZVAL   =    4.000    mass and valenz                                          
   RCORE  =    1.900    outmost cutoff radius                                                       
   RWIGS  =    2.480; RWIGS  =    1.312    wigner-seitz radius (au A)                               
   ENMAX  =  245.345; ENMIN  =  184.009 eV                                                          
   ICORE  =        2    local potential                                                             
   LCOR   =        T    correct aug charges                                                         
   LPAW   =        T    paw PP                                                                      
   EAUG   =  322.069                                                                                
   DEXC   =    0.000                                                                                
   RMAX   =    1.950    core radius for proj-oper                                                   
   RAUG   =    1.300    factor for augmentation sphere                                              
   RDEP   =    1.993    radius for radial grids                                                     
   RDEPT  =    1.837    core radius for aug-charge                                                  
                                                                                                    
   Atomic configuration                                                                             
    6 entries                                                                                       
     n  l   j            E        occ.                                                              
     1  0  0.50     -1785.8828   2.0000                                                             
     2  0  0.50      -139.4969   2.0000                                                             
     2  1  1.50       -95.5546   6.0000                                                             
     3  0  0.50       -10.8127   2.0000                                                             
     3  1  0.50        -4.0811   2.0000                                                             
     3  2  1.50        -4.0817   0.0000                                                             
   Description                                                                                      
     l       E           TYP  RCUT    TYP  RCUT                                                     
     0    -10.8127223     23  1.900                                                                 
     0     -7.6451159     23  1.900                                                                 
     1     -4.0811372     23  1.900                                                                 
     1      2.4879257     23  1.900                                                                 
     2     -4.0817478      7  1.900                                                                 
  local pseudopotential read in
  partial core-charges read in
  partial kinetic energy density read in
  atomic valenz-charges read in
  non local Contribution for L=           0  read in
    real space projection operators read in
  non local Contribution for L=           0  read in
    real space projection operators read in
  non local Contribution for L=           1  read in
    real space projection operators read in
  non local Contribution for L=           1  read in
    real space projection operators read in
    PAW grid and wavefunctions read in
 
   number of l-projection  operators is LMAX  =           4
   number of lm-projection operators is LMMAX =           8
 
 Optimization of the real space projectors (new method)

 maximal supplied QI-value         = 17.01
 optimisation between [QCUT,QGAM] = [ 11.40, 22.79] = [ 36.36,145.44] Ry 
 Optimized for a Real-space Cutoff    1.47 Angstroem

   l    n(q)    QCUT    max X(q) W(low)/X(q) W(high)/X(q)  e(spline) 
   1     10    11.395     4.267    0.90E-04    0.11E-03    0.18E-06
   1     10    11.395     5.750    0.14E-03    0.15E-03    0.25E-06
   2      9    11.395    53.656    0.13E-03    0.36E-04    0.15E-06
   2      9    11.395    49.521    0.14E-03    0.36E-04    0.15E-06
   0     10    11.395    31.246    0.58E-04    0.17E-05    0.98E-07
   0     10    11.395    12.201    0.41E-04    0.11E-05    0.82E-07
 Optimization of the real space projectors (new method)

 maximal supplied QI-value         = 16.25
 optimisation between [QCUT,QGAM] = [ 11.38, 22.75] = [ 36.24,144.96] Ry 
 Optimized for a Real-space Cutoff    1.47 Angstroem

   l    n(q)    QCUT    max X(q) W(low)/X(q) W(high)/X(q)  e(spline) 
   1     10    11.376     4.946    0.88E-04    0.16E-03    0.15E-06
   1     10    11.376     5.991    0.13E-03    0.24E-03    0.21E-06
   2      9    11.376    46.947    0.87E-04    0.91E-04    0.20E-06
   2      9    11.376    42.928    0.91E-04    0.94E-04    0.20E-06
   0     10    11.376    68.324    0.58E-04    0.21E-04    0.82E-07
   0     10    11.376    36.926    0.52E-04    0.19E-04    0.78E-07
 Optimization of the real space projectors (new method)

 maximal supplied QI-value         = 19.84
 optimisation between [QCUT,QGAM] = [ 11.31, 22.82] = [ 35.82,145.81] Ry 
 Optimized for a Real-space Cutoff    1.20 Angstroem

   l    n(q)    QCUT    max X(q) W(low)/X(q) W(high)/X(q)  e(spline) 
   0      8    11.310   159.560    0.13E-03    0.16E-03    0.42E-07
   0      8    11.310   115.863    0.12E-03    0.16E-03    0.41E-07
   1      8    11.310    88.339    0.16E-03    0.14E-03    0.80E-07
   1      8    11.310    48.592    0.16E-03    0.14E-03    0.78E-07
  PAW_PBE Fe_pv 02Aug2007               :
 energy of atom  1       EATOM=-2457.4239
 kinetic energy error for atom=    0.0069 (will be added to EATOM!!)
  PAW_PBE Co_pv 23Apr2009               :
 energy of atom  2       EATOM=-2948.1334
 kinetic energy error for atom=    0.0060 (will be added to EATOM!!)
     PAW_PBE Si 05Jan2001               :
 energy of atom  3       EATOM= -103.0669
 kinetic energy error for atom=    0.0006 (will be added to EATOM!!)
 
 
 POSCAR: Heusler tetragonSi
  positions in direct lattice
  velocities in cartesian coordinates
 exchange correlation table for  LEXCH =        8
   RHO(1)=    0.500       N(1)  =     2000
   RHO(2)=  100.500       N(2)  =     4000
 


--------------------------------------------------------------------------------------------------------


 ion  position               nearest neighbor table
   1  0.500  0.500  0.500-   5 2.42   6 2.42   7 2.42   8 2.42  13 2.42  14 2.42  15 2.42  16 2.42
                             3 2.77   3 2.77
   2  0.000  0.000  0.500-   5 2.42   6 2.42   7 2.42   8 2.42  13 2.42  14 2.42  15 2.42  16 2.42
                             4 2.77   4 2.77
   3  0.500  0.500  0.000-   5 2.42   6 2.42   7 2.42   8 2.42  13 2.42  14 2.42  15 2.42  16 2.42
                             1 2.77   1 2.77
   4  0.000  0.000  0.000-   5 2.42   6 2.42   7 2.42   8 2.42  13 2.42  14 2.42  15 2.42  16 2.42
                             2 2.77   2 2.77
   5  0.250  0.250  0.750-   1 2.42   2 2.42   3 2.42   4 2.42   9 2.42  10 2.42  11 2.42  12 2.42
                            13 2.77  13 2.77
   6  0.250  0.750  0.250-   1 2.42   2 2.42   3 2.42   4 2.42   9 2.42  10 2.42  11 2.42  12 2.42
                            15 2.77  15 2.77
   7  0.750  0.250  0.250-   1 2.42   2 2.42   3 2.42   4 2.42   9 2.42  10 2.42  11 2.42  12 2.42
                            14 2.77  14 2.77
   8  0.750  0.750  0.750-   1 2.42   2 2.42   3 2.42   4 2.42   9 2.42  10 2.42  11 2.42  12 2.42
                            16 2.77  16 2.77
   9  0.500  0.000  0.000-   5 2.42   6 2.42   7 2.42   8 2.42  13 2.42  14 2.42  15 2.42  16 2.42
                            11 2.77  11 2.77
  10  0.000  0.500  0.000-   5 2.42   6 2.42   7 2.42   8 2.42  13 2.42  14 2.42  15 2.42  16 2.42
                            12 2.77  12 2.77
  11  0.500  0.000  0.500-   5 2.42   6 2.42   7 2.42   8 2.42  13 2.42  14 2.42  15 2.42  16 2.42
                             9 2.77   9 2.77
  12  0.000  0.500  0.500-   5 2.42   6 2.42   7 2.42   8 2.42  13 2.42  14 2.42  15 2.42  16 2.42
                            10 2.77  10 2.77
  13  0.250  0.250  0.250-   1 2.42   2 2.42   3 2.42   4 2.42   9 2.42  10 2.42  11 2.42  12 2.42
                             5 2.77   5 2.77
  14  0.750  0.250  0.750-   1 2.42   2 2.42   3 2.42   4 2.42   9 2.42  10 2.42  11 2.42  12 2.42
                             7 2.77   7 2.77
  15  0.250  0.750  0.750-   1 2.42   2 2.42   3 2.42   4 2.42   9 2.42  10 2.42  11 2.42  12 2.42
                             6 2.77   6 2.77
  16  0.750  0.750  0.250-   1 2.42   2 2.42   3 2.42   4 2.42   9 2.42  10 2.42  11 2.42  12 2.42
                             8 2.77   8 2.77
 
  LATTYP: Found a simple tetragonal cell.
 ALAT       =     5.6280574722
 C/A-ratio  =     0.9850764302
  
  Lattice vectors:
  
 A1 = (   5.6280574722,   0.0000000000,   0.0000000000)
 A2 = (   0.0000000000,   5.6280574722,   0.0000000000)
 A3 = (   0.0000000000,   0.0000000000,   5.5440667636)


Analysis of symmetry for initial positions (statically):
=====================================================================
 Subroutine PRICEL returns following result:
 
  LATTYP: Found a simple tetragonal cell.
 ALAT       =     3.9796376035
 C/A-ratio  =     1.3931084475
  
  Lattice vectors:
  
 A1 = (   2.8140287361,  -2.8140287361,   0.0000000000)
 A2 = (  -2.8140287361,  -2.8140287361,   0.0000000000)
 A3 = (   0.0000000000,   0.0000000000,  -5.5440667636)
 
   2 primitive cells build up your supercell.
 

 Routine SETGRP: Setting up the symmetry group for a 
 simple tetragonal supercell.


 Subroutine GETGRP returns: Found 16 space group operations
 (whereof  8 operations were pure point group operations)
 out of a pool of 16 trial point group operations.


The static configuration has the point symmetry D_2d.
 The point group associated with its full space group is D_4h.


Analysis of symmetry for dynamics (positions and initial velocities):
=====================================================================
 Subroutine PRICEL returns following result:
 
  LATTYP: Found a simple tetragonal cell.
 ALAT       =     3.9796376035
 C/A-ratio  =     1.3931084475
  
  Lattice vectors:
  
 A1 = (   2.8140287361,  -2.8140287361,   0.0000000000)
 A2 = (  -2.8140287361,  -2.8140287361,   0.0000000000)
 A3 = (   0.0000000000,   0.0000000000,  -5.5440667636)
 
   2 primitive cells build up your supercell.
 

 Routine SETGRP: Setting up the symmetry group for a 
 simple tetragonal supercell.


 Subroutine GETGRP returns: Found 16 space group operations
 (whereof  8 operations were pure point group operations)
 out of a pool of 16 trial point group operations.


The dynamic configuration has the point symmetry D_2d.
 The point group associated with its full space group is D_4h.


Analysis of structural, dynamic, and magnetic symmetry:
=====================================================================
 Subroutine PRICEL returns following result:
 
  LATTYP: Found a simple tetragonal cell.
 ALAT       =     3.9796376035
 C/A-ratio  =     1.3931084475
  
  Lattice vectors:
  
 A1 = (   2.8140287361,  -2.8140287361,   0.0000000000)
 A2 = (  -2.8140287361,  -2.8140287361,   0.0000000000)
 A3 = (   0.0000000000,   0.0000000000,  -5.5440667636)
 
   2 primitive cells build up your supercell.
 

 Routine SETGRP: Setting up the symmetry group for a 
 simple tetragonal supercell.


 Subroutine GETGRP returns: Found 16 space group operations
 (whereof  8 operations were pure point group operations)
 out of a pool of 16 trial point group operations.


The magnetic configuration has the point symmetry D_2d.
 The point group associated with its full space group is D_4h.


 Subroutine INISYM returns: Found 16 space group operations
 (whereof  8 operations are pure point group operations),
 and found     2 'primitive' translations


----------------------------------------------------------------------------------------

                                     Primitive cell                                     

  volume of cell :      87.8042

  direct lattice vectors                    reciprocal lattice vectors
     2.814028736 -2.814028736  0.000000000     0.177681199 -0.177681199  0.000000000
    -2.814028736 -2.814028736  0.000000000    -0.177681199 -0.177681199  0.000000000
     0.000000000  0.000000000 -5.544066764     0.000000000  0.000000000 -0.180373008

  length of vectors
     3.979637604  3.979637604  5.544066764     0.251279161  0.251279161  0.180373008

  position of ions in fractional coordinates (direct lattice)
     0.000000000  0.000000000  0.500000000
     0.000000000  0.000000000  0.000000000
     0.000000000  0.500000000  0.250000000
     0.500000000  0.000000000  0.750000000
     0.500000000  0.500000000  0.000000000
     0.500000000  0.500000000  0.500000000
     0.000000000  0.500000000  0.750000000
     0.500000000  0.000000000  0.250000000

  ion indices of the primitive-cell ions
   primitive index   ion index
                 1           1
                 2           3
                 3           5
                 4           6
                 5           9
                 6          11
                 7          13
                 8          14

----------------------------------------------------------------------------------------

 
 
 KPOINTS: Ni7CoMn5CrSn2                           

Automatic generation of k-mesh.
Space group operators:
 irot       det(A)        alpha          n_x          n_y          n_z        tau_x        tau_y        tau_z
    1     1.000000     0.000001     1.000000     0.000000     0.000000     0.000000     0.000000     0.000000
    2    -1.000000    90.000000     0.000000     0.000000    -1.000000     0.000000     0.000000     0.000000
    3     1.000000   180.000000     0.000000     0.000000     1.000000     0.000000     0.000000     0.000000
    4    -1.000000    90.000000     0.000000     0.000000     1.000000     0.000000     0.000000     0.000000
    5     1.000000   180.000000     0.000000     1.000000     0.000000     0.000000     0.000000     0.000000
    6    -1.000000   180.000000     0.707107     0.707107     0.000000     0.000000     0.000000     0.000000
    7     1.000000   180.000000     1.000000     0.000000     0.000000     0.000000     0.000000     0.000000
    8    -1.000000   180.000000     0.707107    -0.707107     0.000000     0.000000     0.000000     0.000000
    9    -1.000000     0.000001     1.000000     0.000000     0.000000     0.000000     0.000000     0.500000
   10     1.000000    90.000000     0.000000     0.000000    -1.000000     0.000000     0.000000     0.500000
   11    -1.000000   180.000000     0.000000     0.000000     1.000000     0.000000     0.000000     0.500000
   12     1.000000    90.000000     0.000000     0.000000     1.000000     0.000000     0.000000     0.500000
   13    -1.000000   180.000000     0.000000     1.000000     0.000000     0.000000     0.000000     0.500000
   14     1.000000   180.000000     0.707107     0.707107     0.000000     0.000000     0.000000     0.500000
   15    -1.000000   180.000000     1.000000     0.000000     0.000000     0.000000     0.000000     0.500000
   16     1.000000   180.000000     0.707107    -0.707107     0.000000     0.000000     0.000000     0.500000
 
 Subroutine IBZKPT returns following result:
 ===========================================
 
 Found     40 irreducible k-points:
 
 Following reciprocal coordinates:
            Coordinates               Weight
  0.062500  0.062500  0.062500      8.000000
  0.187500  0.062500  0.062500     16.000000
  0.312500  0.062500  0.062500     16.000000
  0.437500  0.062500  0.062500     16.000000
  0.187500  0.187500  0.062500      8.000000
  0.312500  0.187500  0.062500     16.000000
  0.437500  0.187500  0.062500     16.000000
  0.312500  0.312500  0.062500      8.000000
  0.437500  0.312500  0.062500     16.000000
  0.437500  0.437500  0.062500      8.000000
  0.062500  0.062500  0.187500      8.000000
  0.187500  0.062500  0.187500     16.000000
  0.312500  0.062500  0.187500     16.000000
  0.437500  0.062500  0.187500     16.000000
  0.187500  0.187500  0.187500      8.000000
  0.312500  0.187500  0.187500     16.000000
  0.437500  0.187500  0.187500     16.000000
  0.312500  0.312500  0.187500      8.000000
  0.437500  0.312500  0.187500     16.000000
  0.437500  0.437500  0.187500      8.000000
  0.062500  0.062500  0.312500      8.000000
  0.187500  0.062500  0.312500     16.000000
  0.312500  0.062500  0.312500     16.000000
  0.437500  0.062500  0.312500     16.000000
  0.187500  0.187500  0.312500      8.000000
  0.312500  0.187500  0.312500     16.000000
  0.437500  0.187500  0.312500     16.000000
  0.312500  0.312500  0.312500      8.000000
  0.437500  0.312500  0.312500     16.000000
  0.437500  0.437500  0.312500      8.000000
  0.062500  0.062500  0.437500      8.000000
  0.187500  0.062500  0.437500     16.000000
  0.312500  0.062500  0.437500     16.000000
  0.437500  0.062500  0.437500     16.000000
  0.187500  0.187500  0.437500      8.000000
  0.312500  0.187500  0.437500     16.000000
  0.437500  0.187500  0.437500     16.000000
  0.312500  0.312500  0.437500      8.000000
  0.437500  0.312500  0.437500     16.000000
  0.437500  0.437500  0.437500      8.000000
 
 Following cartesian coordinates:
            Coordinates               Weight
  0.064409  0.064409  0.065385      8.000000
  0.193228  0.064409  0.065385     16.000000
  0.322047  0.064409  0.065385     16.000000
  0.450866  0.064409  0.065385     16.000000
  0.193228  0.193228  0.065385      8.000000
  0.322047  0.193228  0.065385     16.000000
  0.450866  0.193228  0.065385     16.000000
  0.322047  0.322047  0.065385      8.000000
  0.450866  0.322047  0.065385     16.000000
  0.450866  0.450866  0.065385      8.000000
  0.064409  0.064409  0.196156      8.000000
  0.193228  0.064409  0.196156     16.000000
  0.322047  0.064409  0.196156     16.000000
  0.450866  0.064409  0.196156     16.000000
  0.193228  0.193228  0.196156      8.000000
  0.322047  0.193228  0.196156     16.000000
  0.450866  0.193228  0.196156     16.000000
  0.322047  0.322047  0.196156      8.000000
  0.450866  0.322047  0.196156     16.000000
  0.450866  0.450866  0.196156      8.000000
  0.064409  0.064409  0.326926      8.000000
  0.193228  0.064409  0.326926     16.000000
  0.322047  0.064409  0.326926     16.000000
  0.450866  0.064409  0.326926     16.000000
  0.193228  0.193228  0.326926      8.000000
  0.322047  0.193228  0.326926     16.000000
  0.450866  0.193228  0.326926     16.000000
  0.322047  0.322047  0.326926      8.000000
  0.450866  0.322047  0.326926     16.000000
  0.450866  0.450866  0.326926      8.000000
  0.064409  0.064409  0.457697      8.000000
  0.193228  0.064409  0.457697     16.000000
  0.322047  0.064409  0.457697     16.000000
  0.450866  0.064409  0.457697     16.000000
  0.193228  0.193228  0.457697      8.000000
  0.322047  0.193228  0.457697     16.000000
  0.450866  0.193228  0.457697     16.000000
  0.322047  0.322047  0.457697      8.000000
  0.450866  0.322047  0.457697     16.000000
  0.450866  0.450866  0.457697      8.000000
 


--------------------------------------------------------------------------------------------------------




 Dimension of arrays:
   k-points           NKPTS =     40   k-points in BZ     NKDIM =     40   number of bands    NBANDS=    128
   number of dos      NEDOS =   1500   number of ions     NIONS =     16
   non local maximal  LDIM  =      6   non local SUM 2l+1 LMDIM =     18
   total plane-waves  NPLWV =  70560
   max r-space proj   IRMAX =   5444   max aug-charges    IRDMAX= 107661
   dimension x,y,z NGX =    42 NGY =   42 NGZ =   40
   dimension x,y,z NGXF=    84 NGYF=   84 NGZF=   80
   support grid    NGXF=   168 NGYF=  168 NGZF=  160
   ions per type =               8   4   4
   NGX,Y,Z   is equivalent  to a cutoff of  12.41, 12.41, 11.99 a.u.
   NGXF,Y,Z  is equivalent  to a cutoff of  24.81, 24.81, 23.99 a.u.

 SYSTEM =  NiCoMnGa                                
 POSCAR =  Heusler tetragonSi                      

 Startparameter for this run:
   NWRITE =      2    write-flag & timer
   PREC   = accura    normal or accurate (medium, high low for compatibility)
   ISTART =      0    job   : 0-new  1-cont  2-samecut
   ICHARG =      2    charge: 1-file 2-atom 10-const
   ISPIN  =      2    spin polarized calculation?
   LNONCOLLINEAR =      F non collinear calculations
   LSORBIT =      F    spin-orbit coupling
   INIWAV =      1    electr: 0-lowe 1-rand  2-diag
   LASPH  =      F    aspherical Exc in radial PAW
   METAGGA=      F    non-selfconsistent MetaGGA calc.

 Electronic Relaxation 1
   ENCUT  =  500.0 eV  36.75 Ry    6.06 a.u.  10.26 10.26 10.11*2*pi/ulx,y,z
   ENINI  =  500.0     initial cutoff
   ENAUG  =  578.3 eV  augmentation charge cutoff
   NELM   =    160;   NELMIN=  2; NELMDL= -6     # of ELM steps 
   EDIFF  = 0.1E-05   stopping-criterion for ELM
   LREAL  =      T    real-space projection
   NLSPLINE    = F    spline interpolate recip. space projectors
   LCOMPAT=      F    compatible to vasp.4.4
   GGA_COMPAT  = T    GGA compatible to vasp.4.4-vasp.4.6
   LMAXPAW     = -100 max onsite density
   LMAXMIX     =    6 max onsite mixed and CHGCAR
   VOSKOWN=      0    Vosko Wilk Nusair interpolation
   ROPT   =   -0.00025  -0.00025  -0.00025
 Ionic relaxation
   EDIFFG = -.1E-02   stopping-criterion for IOM
   NSW    =      0    number of steps for IOM
   NBLOCK =      1;   KBLOCK =      1    inner block; outer block 
   IBRION =     -1    ionic relax: 0-MD 1-quasi-New 2-CG
   NFREE  =      1    steps in history (QN), initial steepest desc. (CG)
   ISIF   =      3    stress and relaxation
   IWAVPR =     10    prediction:  0-non 1-charg 2-wave 3-comb
   ISYM   =      2    0-nonsym 1-usesym 2-fastsym
   LCORR  =      T    Harris-Foulkes like correction to forces

   POTIM  = 0.0070    time-step for ionic-motion
   TEIN   =    0.0    initial temperature
   TEBEG  =    0.0;   TEEND  =   0.0 temperature during run
   SMASS  =  -3.00    Nose mass-parameter (am)
   estimated Nose-frequenzy (Omega)   =  0.10E-29 period in steps = 0.90E+48 mass=  -0.724E-27a.u.
   SCALEE = 1.0000    scale energy and forces
   NPACO  =    256;   APACO  = 16.0  distance and # of slots for P.C.
   PSTRESS=    0.0 pullay stress

  Mass of Ions in am
   POMASS =  55.85 58.93 28.09
  Ionic Valenz
   ZVAL   =  14.00 15.00  4.00
  Atomic Wigner-Seitz radii
   RWIGS  =   1.16  1.16  1.16
  virtual crystal weights 
   VCA    =   1.00  1.00  1.00
   NELECT =     188.0000    total number of electrons
   NUPDOWN=      -1.0000    fix difference up-down

 DOS related values:
   EMIN   =  10.00;   EMAX   =-10.00  energy-range for DOS
   EFERMI =   0.00
   ISMEAR =     1;   SIGMA  =   0.10  broadening in eV -4-tet -1-fermi 0-gaus

 Electronic relaxation 2 (details)
   IALGO  =     38    algorithm
   LDIAG  =      T    sub-space diagonalisation (order eigenvalues)
   LSUBROT=      F    optimize rotation matrix (better conditioning)
   TURBO    =      0    0=normal 1=particle mesh
   IRESTART =      0    0=no restart 2=restart with 2 vectors
   NREBOOT  =      0    no. of reboots
   NMIN     =      0    reboot dimension
   EREF     =   0.00    reference energy to select bands
   IMIX   =      4    mixing-type and parameters
     AMIX     =   0.18;   BMIX     =  0.00
     AMIX_MAG =   0.26;   BMIX_MAG =  0.01
     AMIN     =   0.10
     WC   =   100.;   INIMIX=   1;  MIXPRE=   1;  MAXMIX= -45

 Intra band minimization:
   WEIMIN = 0.0000     energy-eigenvalue tresh-hold
   EBREAK =  0.20E-08  absolut break condition
   DEPER  =   0.30     relativ break condition  

   TIME   =   0.40     timestep for ELM

  volume/ion in A,a.u.               =      10.98        74.07
  Fermi-wavevector in a.u.,A,eV,Ry     =   1.674733  3.164787 38.160683  2.804731
  Thomas-Fermi vector in A             =   2.759477
 
 Write flags
   LWAVE        =      F    write WAVECAR
   LDOWNSAMPLE  =      F    k-point downsampling of WAVECAR
   LCHARG       =      T    write CHGCAR
   LVTOT        =      F    write LOCPOT, total local potential
   LVHAR        =      F    write LOCPOT, Hartree potential only
   LELF         =      F    write electronic localiz. function (ELF)
   LORBIT       =     10    0 simple, 1 ext, 2 COOP (PROOUT), +10 PAW based schemes


 Dipole corrections
   LMONO  =      F    monopole corrections only (constant potential shift)
   LDIPOL =      F    correct potential (dipole corrections)
   IDIPOL =      0    1-x, 2-y, 3-z, 4-all directions 
   EPSILON=  1.0000000 bulk dielectric constant

 Exchange correlation treatment:
   GGA     =    --    GGA type
   LEXCH   =     8    internal setting for exchange type
   VOSKOWN=      0    Vosko Wilk Nusair interpolation
   LHFCALC =     F    Hartree Fock is set to
   LHFONE  =     F    Hartree Fock one center treatment
   AEXX    =    0.0000 exact exchange contribution

 Linear response parameters
   LEPSILON=     F    determine dielectric tensor
   LRPA    =     F    only Hartree local field effects (RPA)
   LNABLA  =     F    use nabla operator in PAW spheres
   LVEL    =     F    velocity operator in full k-point grid
   LINTERFAST=   F  fast interpolation
   KINTER  =     0    interpolate to denser k-point grid
   CSHIFT  =0.1000    complex shift for real part using Kramers Kronig
   OMEGAMAX=  -1.0    maximum frequency
   DEG_THRESHOLD= 0.2000000E-02 threshold for treating states as degnerate
   RTIME   =   -0.100 relaxation time in fs
  (WPLASMAI=    0.000 imaginary part of plasma frequency in eV, 0.658/RTIME)
   DFIELD  = 0.0000000 0.0000000 0.0000000 field for delta impulse in time
 
 Orbital magnetization related:
   ORBITALMAG=     F  switch on orbital magnetization
   LCHIMAG   =     F  perturbation theory with respect to B field
   DQ        =  0.001000  dq finite difference perturbation B field
   LLRAUG    =     F  two centre corrections for induced B field



--------------------------------------------------------------------------------------------------------


 Static calculation
 charge density and potential will be updated during run
 spin polarized calculation
 Variant of blocked Davidson
 Davidson routine will perform the subspace rotation
 perform sub-space diagonalisation
    after iterative eigenvector-optimisation
 modified Broyden-mixing scheme, WC =      100.0
 initial mixing is a Kerker type mixing with AMIX =  0.1800 and BMIX =      0.0025
 Hartree-type preconditioning will be used
 using additional bands           34
 real space projection scheme for non local part
 use partial core corrections
 calculate Harris-corrections to forces 
   (improved forces if not selfconsistent)
 use gradient corrections 
 use of overlap-Matrix (Vanderbilt PP)
 Methfessel and Paxton  Order N= 1 SIGMA  =   0.10


--------------------------------------------------------------------------------------------------------


  energy-cutoff  :      500.00
  volume of cell :      175.61
      direct lattice vectors                 reciprocal lattice vectors
     5.628057472  0.000000000  0.000000000     0.177681199  0.000000000  0.000000000
     0.000000000  5.628057472  0.000000000     0.000000000  0.177681199  0.000000000
     0.000000000  0.000000000  5.544066764     0.000000000  0.000000000  0.180373008

  length of vectors
     5.628057472  5.628057472  5.544066764     0.177681199  0.177681199  0.180373008


 
 k-points in units of 2pi/SCALE and weight: Ni7CoMn5CrSn2                           
   0.06440943  0.06440943  0.06538522       0.016
   0.19322830  0.06440943  0.06538522       0.031
   0.32204717  0.06440943  0.06538522       0.031
   0.45086604  0.06440943  0.06538522       0.031
   0.19322830  0.19322830  0.06538522       0.016
   0.32204717  0.19322830  0.06538522       0.031
   0.45086604  0.19322830  0.06538522       0.031
   0.32204717  0.32204717  0.06538522       0.016
   0.45086604  0.32204717  0.06538522       0.031
   0.45086604  0.45086604  0.06538522       0.016
   0.06440943  0.06440943  0.19615565       0.016
   0.19322830  0.06440943  0.19615565       0.031
   0.32204717  0.06440943  0.19615565       0.031
   0.45086604  0.06440943  0.19615565       0.031
   0.19322830  0.19322830  0.19615565       0.016
   0.32204717  0.19322830  0.19615565       0.031
   0.45086604  0.19322830  0.19615565       0.031
   0.32204717  0.32204717  0.19615565       0.016
   0.45086604  0.32204717  0.19615565       0.031
   0.45086604  0.45086604  0.19615565       0.016
   0.06440943  0.06440943  0.32692608       0.016
   0.19322830  0.06440943  0.32692608       0.031
   0.32204717  0.06440943  0.32692608       0.031
   0.45086604  0.06440943  0.32692608       0.031
   0.19322830  0.19322830  0.32692608       0.016
   0.32204717  0.19322830  0.32692608       0.031
   0.45086604  0.19322830  0.32692608       0.031
   0.32204717  0.32204717  0.32692608       0.016
   0.45086604  0.32204717  0.32692608       0.031
   0.45086604  0.45086604  0.32692608       0.016
   0.06440943  0.06440943  0.45769651       0.016
   0.19322830  0.06440943  0.45769651       0.031
   0.32204717  0.06440943  0.45769651       0.031
   0.45086604  0.06440943  0.45769651       0.031
   0.19322830  0.19322830  0.45769651       0.016
   0.32204717  0.19322830  0.45769651       0.031
   0.45086604  0.19322830  0.45769651       0.031
   0.32204717  0.32204717  0.45769651       0.016
   0.45086604  0.32204717  0.45769651       0.031
   0.45086604  0.45086604  0.45769651       0.016
 
 k-points in reciprocal lattice and weights: Ni7CoMn5CrSn2                           
   0.06250000  0.06250000  0.06250000       0.016
   0.18750000  0.06250000  0.06250000       0.031
   0.31250000  0.06250000  0.06250000       0.031
   0.43750000  0.06250000  0.06250000       0.031
   0.18750000  0.18750000  0.06250000       0.016
   0.31250000  0.18750000  0.06250000       0.031
   0.43750000  0.18750000  0.06250000       0.031
   0.31250000  0.31250000  0.06250000       0.016
   0.43750000  0.31250000  0.06250000       0.031
   0.43750000  0.43750000  0.06250000       0.016
   0.06250000  0.06250000  0.18750000       0.016
   0.18750000  0.06250000  0.18750000       0.031
   0.31250000  0.06250000  0.18750000       0.031
   0.43750000  0.06250000  0.18750000       0.031
   0.18750000  0.18750000  0.18750000       0.016
   0.31250000  0.18750000  0.18750000       0.031
   0.43750000  0.18750000  0.18750000       0.031
   0.31250000  0.31250000  0.18750000       0.016
   0.43750000  0.31250000  0.18750000       0.031
   0.43750000  0.43750000  0.18750000       0.016
   0.06250000  0.06250000  0.31250000       0.016
   0.18750000  0.06250000  0.31250000       0.031
   0.31250000  0.06250000  0.31250000       0.031
   0.43750000  0.06250000  0.31250000       0.031
   0.18750000  0.18750000  0.31250000       0.016
   0.31250000  0.18750000  0.31250000       0.031
   0.43750000  0.18750000  0.31250000       0.031
   0.31250000  0.31250000  0.31250000       0.016
   0.43750000  0.31250000  0.31250000       0.031
   0.43750000  0.43750000  0.31250000       0.016
   0.06250000  0.06250000  0.43750000       0.016
   0.18750000  0.06250000  0.43750000       0.031
   0.31250000  0.06250000  0.43750000       0.031
   0.43750000  0.06250000  0.43750000       0.031
   0.18750000  0.18750000  0.43750000       0.016
   0.31250000  0.18750000  0.43750000       0.031
   0.43750000  0.18750000  0.43750000       0.031
   0.31250000  0.31250000  0.43750000       0.016
   0.43750000  0.31250000  0.43750000       0.031
   0.43750000  0.43750000  0.43750000       0.016
 
 position of ions in fractional coordinates (direct lattice) 
   0.50000000  0.50000000  0.50000000
   0.00000000  0.00000000  0.50000000
   0.50000000  0.50000000  0.00000000
   0.00000000  0.00000000  0.00000000
   0.25000000  0.25000000  0.75000000
   0.25000000  0.75000000  0.25000000
   0.75000000  0.25000000  0.25000000
   0.75000000  0.75000000  0.75000000
   0.50000000  0.00000000  0.00000000
   0.00000000  0.50000000  0.00000000
   0.50000000  0.00000000  0.50000000
   0.00000000  0.50000000  0.50000000
   0.25000000  0.25000000  0.25000000
   0.75000000  0.25000000  0.75000000
   0.25000000  0.75000000  0.75000000
   0.75000000  0.75000000  0.25000000
 
 position of ions in cartesian coordinates  (Angst):
   2.81402874  2.81402874  2.77203338
   0.00000000  0.00000000  2.77203338
   2.81402874  2.81402874  0.00000000
   0.00000000  0.00000000  0.00000000
   1.40701437  1.40701437  4.15805007
   1.40701437  4.22104310  1.38601669
   4.22104310  1.40701437  1.38601669
   4.22104310  4.22104310  4.15805007
   2.81402874  0.00000000  0.00000000
   0.00000000  2.81402874  0.00000000
   2.81402874  0.00000000  2.77203338
   0.00000000  2.81402874  2.77203338
   1.40701437  1.40701437  1.38601669
   4.22104310  1.40701437  4.15805007
   1.40701437  4.22104310  4.15805007
   4.22104310  4.22104310  1.38601669
 


--------------------------------------------------------------------------------------------------------


 k-point   1 :   0.0625 0.0625 0.0625  plane waves:    4460
 k-point   2 :   0.1875 0.0625 0.0625  plane waves:    4466
 k-point   3 :   0.3125 0.0625 0.0625  plane waves:    4460
 k-point   4 :   0.4375 0.0625 0.0625  plane waves:    4442
 k-point   5 :   0.1875 0.1875 0.0625  plane waves:    4460
 k-point   6 :   0.3125 0.1875 0.0625  plane waves:    4454
 k-point   7 :   0.4375 0.1875 0.0625  plane waves:    4445
 k-point   8 :   0.3125 0.3125 0.0625  plane waves:    4451
 k-point   9 :   0.4375 0.3125 0.0625  plane waves:    4452
 k-point  10 :   0.4375 0.4375 0.0625  plane waves:    4457
 k-point  11 :   0.0625 0.0625 0.1875  plane waves:    4464
 k-point  12 :   0.1875 0.0625 0.1875  plane waves:    4467
 k-point  13 :   0.3125 0.0625 0.1875  plane waves:    4459
 k-point  14 :   0.4375 0.0625 0.1875  plane waves:    4450
 k-point  15 :   0.1875 0.1875 0.1875  plane waves:    4467
 k-point  16 :   0.3125 0.1875 0.1875  plane waves:    4453
 k-point  17 :   0.4375 0.1875 0.1875  plane waves:    4452
 k-point  18 :   0.3125 0.3125 0.1875  plane waves:    4459
 k-point  19 :   0.4375 0.3125 0.1875  plane waves:    4459
 k-point  20 :   0.4375 0.4375 0.1875  plane waves:    4459
 k-point  21 :   0.0625 0.0625 0.3125  plane waves:    4453
 k-point  22 :   0.1875 0.0625 0.3125  plane waves:    4460
 k-point  23 :   0.3125 0.0625 0.3125  plane waves:    4467
 k-point  24 :   0.4375 0.0625 0.3125  plane waves:    4454
 k-point  25 :   0.1875 0.1875 0.3125  plane waves:    4458
 k-point  26 :   0.3125 0.1875 0.3125  plane waves:    4452
 k-point  27 :   0.4375 0.1875 0.3125  plane waves:    4461
 k-point  28 :   0.3125 0.3125 0.3125  plane waves:    4452
 k-point  29 :   0.4375 0.3125 0.3125  plane waves:    4458
 k-point  30 :   0.4375 0.4375 0.3125  plane waves:    4486
 k-point  31 :   0.0625 0.0625 0.4375  plane waves:    4468
 k-point  32 :   0.1875 0.0625 0.4375  plane waves:    4455
 k-point  33 :   0.3125 0.0625 0.4375  plane waves:    4458
 k-point  34 :   0.4375 0.0625 0.4375  plane waves:    4462
 k-point  35 :   0.1875 0.1875 0.4375  plane waves:    4449
 k-point  36 :   0.3125 0.1875 0.4375  plane waves:    4459
 k-point  37 :   0.4375 0.1875 0.4375  plane waves:    4473
 k-point  38 :   0.3125 0.3125 0.4375  plane waves:    4460
 k-point  39 :   0.4375 0.3125 0.4375  plane waves:    4459
 k-point  40 :   0.4375 0.4375 0.4375  plane waves:    4469

 maximum and minimum number of plane-waves per node :       466      425

 maximum number of plane-waves:      4486
 maximum index in each direction: 
   IXMAX=   10   IYMAX=   10   IZMAX=   10
   IXMIN=  -10   IYMIN=  -10   IZMIN=  -10


 real space projection operators:
  total allocation   :       9574.62 KBytes
  max/ min on nodes  :       1038.06        820.38


 parallel 3D FFT for wavefunctions:
    minimum data exchange during FFTs selected (reduces bandwidth)
 parallel 3D FFT for charge:
    minimum data exchange during FFTs selected (reduces bandwidth)


 total amount of memory used by VASP MPI-rank0    49099. kBytes
=======================================================================

   base      :      30000. kBytes
   nonlr-proj:       2762. kBytes
   fftplans  :       3102. kBytes
   grid      :       2688. kBytes
   one-center:         62. kBytes
   wavefun   :      10485. kBytes
 
     INWAV:  cpu time    0.0000: real time    0.0001
 Broyden mixing: mesh for mixing (old mesh)
   NGX = 21   NGY = 21   NGZ = 21
  (NGX  = 84   NGY  = 84   NGZ  = 80)
  gives a total of   9261 points

 initial charge density was supplied:
 charge density of overlapping atoms calculated
 number of electron     188.0000000 magnetization      23.2000000
 keeping initial charge density in first step


--------------------------------------------------------------------------------------------------------


 Maximum index for non-local projection operator          767
 Maximum index for augmentation-charges         5018 (set IRDMAX)


--------------------------------------------------------------------------------------------------------


 First call to EWALD:  gamma=   0.317
 Maximum number of real-space cells 3x 3x 3
 Maximum number of reciprocal cells 3x 3x 3

    FEWALD:  cpu time    0.0040: real time    0.0015


--------------------------------------- Iteration      1(   1)  ---------------------------------------


    POTLOK:  cpu time    0.1400: real time    0.1626
    SETDIJ:  cpu time    0.0720: real time    0.0743
     EDDAV:  cpu time    8.8246: real time    8.8513
       DOS:  cpu time    0.0080: real time    0.0065
    --------------------------------------------
      LOOP:  cpu time    9.0446: real time    9.0947

 eigenvalue-minimisations  : 21000
 total energy-change (2. order) : 0.2691276E+04  (-0.9056825E+04)
 number of electron     188.0000000 magnetization      23.2000000
 augmentation part      188.0000000 magnetization      23.2000000

 Free energy of the ion-electron system (eV)
  ---------------------------------------------------
  alpha Z        PSCENC =      1253.83965205
  Ewald energy   TEWEN  =    -22211.32089511
  -Hartree energ DENC   =     -8641.64074339
  -exchange      EXHF   =         0.00000000
  -V(xc)+E(xc)   XCENC  =       909.39775127
  PAW double counting   =     25735.45600997   -27176.27888444
  entropy T*S    EENTRO =         0.00126937
  eigenvalues    EBANDS =       957.71119929
  atomic energy  EATOM  =     31864.11063514
  Solvation  Ediel_sol  =         0.00000000
  ---------------------------------------------------
  free energy    TOTEN  =      2691.27599416 eV

  energy without entropy =     2691.27472478  energy(sigma->0) =     2691.27557103


--------------------------------------------------------------------------------------------------------




--------------------------------------- Iteration      1(   2)  ---------------------------------------


     EDDAV:  cpu time    8.6125: real time    8.6388
       DOS:  cpu time    0.0080: real time    0.0074
    --------------------------------------------
      LOOP:  cpu time    8.6205: real time    8.6462

 eigenvalue-minimisations  : 20480
 total energy-change (2. order) :-0.2454730E+04  (-0.2335317E+04)
 number of electron     188.0000000 magnetization      23.2000000
 augmentation part      188.0000000 magnetization      23.2000000

 Free energy of the ion-electron system (eV)
  ---------------------------------------------------
  alpha Z        PSCENC =      1253.83965205
  Ewald energy   TEWEN  =    -22211.32089511
  -Hartree energ DENC   =     -8641.64074339
  -exchange      EXHF   =         0.00000000
  -V(xc)+E(xc)   XCENC  =       909.39775127
  PAW double counting   =     25735.45600997   -27176.27888444
  entropy T*S    EENTRO =         0.00345251
  eigenvalues    EBANDS =     -1497.02131600
  atomic energy  EATOM  =     31864.11063514
  Solvation  Ediel_sol  =         0.00000000
  ---------------------------------------------------
  free energy    TOTEN  =       236.54566201 eV

  energy without entropy =      236.54220949  energy(sigma->0) =      236.54451117


--------------------------------------------------------------------------------------------------------




--------------------------------------- Iteration      1(   3)  ---------------------------------------


     EDDAV:  cpu time    8.7445: real time    8.7682
       DOS:  cpu time    0.0040: real time    0.0074
    --------------------------------------------
      LOOP:  cpu time    8.7485: real time    8.7756

 eigenvalue-minimisations  : 20920
 total energy-change (2. order) :-0.3527088E+03  (-0.3113688E+03)
 number of electron     188.0000000 magnetization      23.2000000
 augmentation part      188.0000000 magnetization      23.2000000

 Free energy of the ion-electron system (eV)
  ---------------------------------------------------
  alpha Z        PSCENC =      1253.83965205
  Ewald energy   TEWEN  =    -22211.32089511
  -Hartree energ DENC   =     -8641.64074339
  -exchange      EXHF   =         0.00000000
  -V(xc)+E(xc)   XCENC  =       909.39775127
  PAW double counting   =     25735.45600997   -27176.27888444
  entropy T*S    EENTRO =        -0.00015982
  eigenvalues    EBANDS =     -1849.72647773
  atomic energy  EATOM  =     31864.11063514
  Solvation  Ediel_sol  =         0.00000000
  ---------------------------------------------------
  free energy    TOTEN  =      -116.16311206 eV

  energy without entropy =     -116.16295223  energy(sigma->0) =     -116.16305878


--------------------------------------------------------------------------------------------------------




--------------------------------------- Iteration      1(   4)  ---------------------------------------


     EDDAV:  cpu time    9.1846: real time    9.2093
       DOS:  cpu time    0.0080: real time    0.0080
    --------------------------------------------
      LOOP:  cpu time    9.1926: real time    9.2173

 eigenvalue-minimisations  : 22328
 total energy-change (2. order) :-0.1988014E+02  (-0.1952062E+02)
 number of electron     188.0000000 magnetization      23.2000000
 augmentation part      188.0000000 magnetization      23.2000000

 Free energy of the ion-electron system (eV)
  ---------------------------------------------------
  alpha Z        PSCENC =      1253.83965205
  Ewald energy   TEWEN  =    -22211.32089511
  -Hartree energ DENC   =     -8641.64074339
  -exchange      EXHF   =         0.00000000
  -V(xc)+E(xc)   XCENC  =       909.39775127
  PAW double counting   =     25735.45600997   -27176.27888444
  entropy T*S    EENTRO =        -0.00005635
  eigenvalues    EBANDS =     -1869.60671668
  atomic energy  EATOM  =     31864.11063514
  Solvation  Ediel_sol  =         0.00000000
  ---------------------------------------------------
  free energy    TOTEN  =      -136.04324754 eV

  energy without entropy =     -136.04319118  energy(sigma->0) =     -136.04322875


--------------------------------------------------------------------------------------------------------




--------------------------------------- Iteration      1(   5)  ---------------------------------------


     EDDAV:  cpu time    9.1846: real time    9.2117
       DOS:  cpu time    0.0080: real time    0.0079
    --------------------------------------------
      LOOP:  cpu time    9.1926: real time    9.2196

 eigenvalue-minimisations  : 22312
 total energy-change (2. order) :-0.3634259E+00  (-0.3628711E+00)
 number of electron     188.0000000 magnetization      23.2000000
 augmentation part      188.0000000 magnetization      23.2000000

 Free energy of the ion-electron system (eV)
  ---------------------------------------------------
  alpha Z        PSCENC =      1253.83965205
  Ewald energy   TEWEN  =    -22211.32089511
  -Hartree energ DENC   =     -8641.64074339
  -exchange      EXHF   =         0.00000000
  -V(xc)+E(xc)   XCENC  =       909.39775127
  PAW double counting   =     25735.45600997   -27176.27888444
  entropy T*S    EENTRO =         0.00004636
  eigenvalues    EBANDS =     -1869.97024526
  atomic energy  EATOM  =     31864.11063514
  Solvation  Ediel_sol  =         0.00000000
  ---------------------------------------------------
  free energy    TOTEN  =      -136.40667340 eV

  energy without entropy =     -136.40671976  energy(sigma->0) =     -136.40668886


--------------------------------------------------------------------------------------------------------




--------------------------------------- Iteration      1(   6)  ---------------------------------------


     EDDAV:  cpu time    9.1486: real time    9.1770
       DOS:  cpu time    0.0080: real time    0.0080
    CHARGE:  cpu time    0.2560: real time    0.2549
    MIXING:  cpu time    0.0000: real time    0.0017
    --------------------------------------------
      LOOP:  cpu time    9.4126: real time    9.4416

 eigenvalue-minimisations  : 22160
 total energy-change (2. order) :-0.1116157E-01  (-0.1116096E-01)
 number of electron     188.0000015 magnetization      22.4518614
 augmentation part       98.7580944 magnetization      17.1916174

 Broyden mixing:
  rms(total) = 0.45358E+01    rms(broyden)= 0.45351E+01
  rms(prec ) = 0.65563E+01
  weight for this iteration     100.00

 Free energy of the ion-electron system (eV)
  ---------------------------------------------------
  alpha Z        PSCENC =      1253.83965205
  Ewald energy   TEWEN  =    -22211.32089511
  -Hartree energ DENC   =     -8641.64074339
  -exchange      EXHF   =         0.00000000
  -V(xc)+E(xc)   XCENC  =       909.39775127
  PAW double counting   =     25735.45600997   -27176.27888444
  entropy T*S    EENTRO =         0.00004747
  eigenvalues    EBANDS =     -1869.98140793
  atomic energy  EATOM  =     31864.11063514
  Solvation  Ediel_sol  =         0.00000000
  ---------------------------------------------------
  free energy    TOTEN  =      -136.41783497 eV

  energy without entropy =     -136.41788244  energy(sigma->0) =     -136.41785079


--------------------------------------------------------------------------------------------------------




--------------------------------------- Iteration      1(   7)  ---------------------------------------


    POTLOK:  cpu time    0.0600: real time    0.0585
    SETDIJ:  cpu time    0.0560: real time    0.0577
     EDDAV:  cpu time    9.1006: real time    9.1281
       DOS:  cpu time    0.0080: real time    0.0080
    CHARGE:  cpu time    0.2480: real time    0.2471
    MIXING:  cpu time    0.0000: real time    0.0009
    --------------------------------------------
      LOOP:  cpu time    9.4726: real time    9.5003

 eigenvalue-minimisations  : 22128
 total energy-change (2. order) : 0.1382057E+02  (-0.4122862E+01)
 number of electron     188.0000016 magnetization      21.8670575
 augmentation part      105.1814870 magnetization      17.2302878

 Broyden mixing:
  rms(total) = 0.28595E+01    rms(broyden)= 0.28593E+01
  rms(prec ) = 0.44862E+01
  weight for this iteration     100.00

 eigenvalues of (default mixing * dielectric matrix)
  average eigenvalue GAMMA=   0.8979
  0.8979

 Free energy of the ion-electron system (eV)
  ---------------------------------------------------
  alpha Z        PSCENC =      1253.83965205
  Ewald energy   TEWEN  =    -22211.32089511
  -Hartree energ DENC   =     -8342.41149376
  -exchange      EXHF   =         0.00000000
  -V(xc)+E(xc)   XCENC  =       897.88823992
  PAW double counting   =     26225.65746584   -27637.12278862
  entropy T*S    EENTRO =        -0.00153514
  eigenvalues    EBANDS =     -2173.23654437
  atomic energy  EATOM  =     31864.11063514
  Solvation  Ediel_sol  =         0.00000000
  ---------------------------------------------------
  free energy    TOTEN  =      -122.59726406 eV

  energy without entropy =     -122.59572891  energy(sigma->0) =     -122.59675234


--------------------------------------------------------------------------------------------------------




--------------------------------------- Iteration      1(   8)  ---------------------------------------


    POTLOK:  cpu time    0.0600: real time    0.0583
    SETDIJ:  cpu time    0.0560: real time    0.0581
     EDDAV:  cpu time    9.2606: real time    9.2854
       DOS:  cpu time    0.0080: real time    0.0077
    CHARGE:  cpu time    0.2480: real time    0.2509
    MIXING:  cpu time    0.0000: real time    0.0009
    --------------------------------------------
      LOOP:  cpu time    9.6326: real time    9.6613

 eigenvalue-minimisations  : 22648
 total energy-change (2. order) :-0.5762046E+01  (-0.2669403E+01)
 number of electron     188.0000016 magnetization      21.3400271
 augmentation part      105.6989432 magnetization      16.7021174

 Broyden mixing:
  rms(total) = 0.38763E+01    rms(broyden)= 0.38761E+01
  rms(prec ) = 0.67378E+01
  weight for this iteration     100.00

 eigenvalues of (default mixing * dielectric matrix)
  average eigenvalue GAMMA=   0.8418
  1.4206  0.2630

 Free energy of the ion-electron system (eV)
  ---------------------------------------------------
  alpha Z        PSCENC =      1253.83965205
  Ewald energy   TEWEN  =    -22211.32089511
  -Hartree energ DENC   =     -8307.32094000
  -exchange      EXHF   =         0.00000000
  -V(xc)+E(xc)   XCENC  =       896.25033109
  PAW double counting   =     26715.52173964   -28132.25374424
  entropy T*S    EENTRO =         0.00155090
  eigenvalues    EBANDS =     -2207.18763918
  atomic energy  EATOM  =     31864.11063514
  Solvation  Ediel_sol  =         0.00000000
  ---------------------------------------------------
  free energy    TOTEN  =      -128.35930972 eV

  energy without entropy =     -128.36086062  energy(sigma->0) =     -128.35982669


--------------------------------------------------------------------------------------------------------




--------------------------------------- Iteration      1(   9)  ---------------------------------------


    POTLOK:  cpu time    0.0600: real time    0.0584
    SETDIJ:  cpu time    0.0600: real time    0.0606
     EDDAV:  cpu time    9.2686: real time    9.2957
       DOS:  cpu time    0.0080: real time    0.0081
    CHARGE:  cpu time    0.2440: real time    0.2433
    MIXING:  cpu time    0.0000: real time    0.0008
    --------------------------------------------
      LOOP:  cpu time    9.6406: real time    9.6669

 eigenvalue-minimisations  : 22664
 total energy-change (2. order) : 0.6704676E+01  (-0.5373587E+00)
 number of electron     188.0000016 magnetization      21.0764207
 augmentation part      106.4544179 magnetization      16.7086179

 Broyden mixing:
  rms(total) = 0.17687E+01    rms(broyden)= 0.17686E+01
  rms(prec ) = 0.24256E+01
  weight for this iteration     100.00

 eigenvalues of (default mixing * dielectric matrix)
  average eigenvalue GAMMA=   0.9945
  1.8658  0.8040  0.3138

 Free energy of the ion-electron system (eV)
  ---------------------------------------------------
  alpha Z        PSCENC =      1253.83965205
  Ewald energy   TEWEN  =    -22211.32089511
  -Hartree energ DENC   =     -8269.02419963
  -exchange      EXHF   =         0.00000000
  -V(xc)+E(xc)   XCENC  =       894.74173021
  PAW double counting   =     27275.51812096   -28694.22861205
  entropy T*S    EENTRO =         0.00105639
  eigenvalues    EBANDS =     -2235.29212150
  atomic energy  EATOM  =     31864.11063514
  Solvation  Ediel_sol  =         0.00000000
  ---------------------------------------------------
  free energy    TOTEN  =      -121.65463355 eV

  energy without entropy =     -121.65568994  energy(sigma->0) =     -121.65498568


--------------------------------------------------------------------------------------------------------




--------------------------------------- Iteration      1(  10)  ---------------------------------------


    POTLOK:  cpu time    0.0560: real time    0.0576
    SETDIJ:  cpu time    0.0600: real time    0.0603
     EDDAV:  cpu time    9.2966: real time    9.3202
       DOS:  cpu time    0.0040: real time    0.0080
    CHARGE:  cpu time    0.2480: real time    0.2473
    MIXING:  cpu time    0.0000: real time    0.0010
    --------------------------------------------
      LOOP:  cpu time    9.6646: real time    9.6943

 eigenvalue-minimisations  : 22752
 total energy-change (2. order) : 0.1271274E+00  (-0.1786615E+00)
 number of electron     188.0000016 magnetization      19.9650004
 augmentation part      106.2110738 magnetization      15.7953179

 Broyden mixing:
  rms(total) = 0.14617E+01    rms(broyden)= 0.14616E+01
  rms(prec ) = 0.18280E+01
  weight for this iteration     100.00

 eigenvalues of (default mixing * dielectric matrix)
  average eigenvalue GAMMA=   1.3407
  3.6374  1.1141  0.3057  0.3057

 Free energy of the ion-electron system (eV)
  ---------------------------------------------------
  alpha Z        PSCENC =      1253.83965205
  Ewald energy   TEWEN  =    -22211.32089511
  -Hartree energ DENC   =     -8264.70515493
  -exchange      EXHF   =         0.00000000
  -V(xc)+E(xc)   XCENC  =       894.56896630
  PAW double counting   =     27674.99836111   -29099.50856484
  entropy T*S    EENTRO =         0.00113170
  eigenvalues    EBANDS =     -2233.51163760
  atomic energy  EATOM  =     31864.11063514
  Solvation  Ediel_sol  =         0.00000000
  ---------------------------------------------------
  free energy    TOTEN  =      -121.52750618 eV

  energy without entropy =     -121.52863788  energy(sigma->0) =     -121.52788341


--------------------------------------------------------------------------------------------------------




--------------------------------------- Iteration      1(  11)  ---------------------------------------


    POTLOK:  cpu time    0.0600: real time    0.0579
    SETDIJ:  cpu time    0.0560: real time    0.0577
     EDDAV:  cpu time    9.9766: real time   10.0035
       DOS:  cpu time    0.0080: real time    0.0080
    CHARGE:  cpu time    0.2480: real time    0.2510
    MIXING:  cpu time    0.0000: real time    0.0010
    --------------------------------------------
      LOOP:  cpu time   10.3486: real time   10.3790

 eigenvalue-minimisations  : 24888
 total energy-change (2. order) :-0.8745647E+00  (-0.2208488E+00)
 number of electron     188.0000016 magnetization      19.4134239
 augmentation part      106.3229857 magnetization      15.3169454

 Broyden mixing:
  rms(total) = 0.14808E+01    rms(broyden)= 0.14807E+01
  rms(prec ) = 0.27843E+01
  weight for this iteration     100.00

 eigenvalues of (default mixing * dielectric matrix)
  average eigenvalue GAMMA=   1.5660
  5.3117  1.1209  0.7551  0.2956  0.3467

 Free energy of the ion-electron system (eV)
  ---------------------------------------------------
  alpha Z        PSCENC =      1253.83965205
  Ewald energy   TEWEN  =    -22211.32089511
  -Hartree energ DENC   =     -8236.44599486
  -exchange      EXHF   =         0.00000000
  -V(xc)+E(xc)   XCENC  =       893.47971427
  PAW double counting   =     29507.28828104   -30950.80642670
  entropy T*S    EENTRO =         0.00526169
  eigenvalues    EBANDS =     -2242.55229840
  atomic energy  EATOM  =     31864.11063514
  Solvation  Ediel_sol  =         0.00000000
  ---------------------------------------------------
  free energy    TOTEN  =      -122.40207087 eV

  energy without entropy =     -122.40733256  energy(sigma->0) =     -122.40382477


--------------------------------------------------------------------------------------------------------




--------------------------------------- Iteration      1(  12)  ---------------------------------------


    POTLOK:  cpu time    0.0600: real time    0.0578
    SETDIJ:  cpu time    0.0600: real time    0.0621
     EDDAV:  cpu time    9.3446: real time    9.3725
       DOS:  cpu time    0.0080: real time    0.0080
    CHARGE:  cpu time    0.2600: real time    0.2572
    MIXING:  cpu time    0.0000: real time    0.0027
    --------------------------------------------
      LOOP:  cpu time    9.7326: real time    9.7603

 eigenvalue-minimisations  : 22864
 total energy-change (2. order) : 0.8006503E+00  (-0.1766575E+00)
 number of electron     188.0000016 magnetization      19.5558102
 augmentation part      106.2815825 magnetization      15.6016633

 Broyden mixing:
  rms(total) = 0.32228E+00    rms(broyden)= 0.32204E+00
  rms(prec ) = 0.35941E+00
  weight for this iteration     100.00

 eigenvalues of (default mixing * dielectric matrix)
  average eigenvalue GAMMA=   1.4084
  5.2727  1.0054  1.0054  0.5189  0.3571  0.2911

 Free energy of the ion-electron system (eV)
  ---------------------------------------------------
  alpha Z        PSCENC =      1253.83965205
  Ewald energy   TEWEN  =    -22211.32089511
  -Hartree energ DENC   =     -8221.36673165
  -exchange      EXHF   =         0.00000000
  -V(xc)+E(xc)   XCENC  =       892.95194950
  PAW double counting   =     30511.18865129   -31966.07680830
  entropy T*S    EENTRO =         0.00067037
  eigenvalues    EBANDS =     -2244.92854388
  atomic energy  EATOM  =     31864.11063514
  Solvation  Ediel_sol  =         0.00000000
  ---------------------------------------------------
  free energy    TOTEN  =      -121.60142058 eV

  energy without entropy =     -121.60209095  energy(sigma->0) =     -121.60164403


--------------------------------------------------------------------------------------------------------




--------------------------------------- Iteration      1(  13)  ---------------------------------------


    POTLOK:  cpu time    0.0600: real time    0.0579
    SETDIJ:  cpu time    0.0560: real time    0.0578
     EDDAV:  cpu time    9.3046: real time    9.3337
       DOS:  cpu time    0.0080: real time    0.0079
    CHARGE:  cpu time    0.2520: real time    0.2523
    MIXING:  cpu time    0.0040: real time    0.0024
    --------------------------------------------
      LOOP:  cpu time    9.6846: real time    9.7120

 eigenvalue-minimisations  : 22736
 total energy-change (2. order) :-0.5399065E-02  (-0.9472853E-02)
 number of electron     188.0000016 magnetization      19.8785768
 augmentation part      106.3459765 magnetization      15.9429019

 Broyden mixing:
  rms(total) = 0.29623E+00    rms(broyden)= 0.29621E+00
  rms(prec ) = 0.34729E+00
  weight for this iteration     100.00

 eigenvalues of (default mixing * dielectric matrix)
  average eigenvalue GAMMA=   1.7907
  5.8226  3.1566  1.0964  1.0964  0.7212  0.3485  0.2933

 Free energy of the ion-electron system (eV)
  ---------------------------------------------------
  alpha Z        PSCENC =      1253.83965205
  Ewald energy   TEWEN  =    -22211.32089511
  -Hartree energ DENC   =     -8220.44124126
  -exchange      EXHF   =         0.00000000
  -V(xc)+E(xc)   XCENC  =       893.01332789
  PAW double counting   =     30424.30571335   -31878.84202218
  entropy T*S    EENTRO =         0.00002988
  eigenvalues    EBANDS =     -2246.27201941
  atomic energy  EATOM  =     31864.11063514
  Solvation  Ediel_sol  =         0.00000000
  ---------------------------------------------------
  free energy    TOTEN  =      -121.60681964 eV

  energy without entropy =     -121.60684953  energy(sigma->0) =     -121.60682961


--------------------------------------------------------------------------------------------------------




--------------------------------------- Iteration      1(  14)  ---------------------------------------


    POTLOK:  cpu time    0.0560: real time    0.0576
    SETDIJ:  cpu time    0.0600: real time    0.0596
     EDDAV:  cpu time    9.0766: real time    9.1033
       DOS:  cpu time    0.0080: real time    0.0080
    CHARGE:  cpu time    0.2520: real time    0.2526
    MIXING:  cpu time    0.0000: real time    0.0018
    --------------------------------------------
      LOOP:  cpu time    9.4526: real time    9.4828

 eigenvalue-minimisations  : 22048
 total energy-change (2. order) :-0.7484909E-02  (-0.9183159E-02)
 number of electron     188.0000016 magnetization      19.9455685
 augmentation part      106.2566282 magnetization      16.0470806

 Broyden mixing:
  rms(total) = 0.13189E+00    rms(broyden)= 0.13188E+00
  rms(prec ) = 0.17281E+00
  weight for this iteration     100.00

 eigenvalues of (default mixing * dielectric matrix)
  average eigenvalue GAMMA=   1.8859
  6.6249  4.0332  1.1657  1.1657  0.2933  0.3485  0.7282  0.7282

 Free energy of the ion-electron system (eV)
  ---------------------------------------------------
  alpha Z        PSCENC =      1253.83965205
  Ewald energy   TEWEN  =    -22211.32089511
  -Hartree energ DENC   =     -8222.10148794
  -exchange      EXHF   =         0.00000000
  -V(xc)+E(xc)   XCENC  =       893.50652034
  PAW double counting   =     30408.59739974   -31866.59405241
  entropy T*S    EENTRO =         0.00117548
  eigenvalues    EBANDS =     -2241.65325185
  atomic energy  EATOM  =     31864.11063514
  Solvation  Ediel_sol  =         0.00000000
  ---------------------------------------------------
  free energy    TOTEN  =      -121.61430455 eV

  energy without entropy =     -121.61548004  energy(sigma->0) =     -121.61469638


--------------------------------------------------------------------------------------------------------




--------------------------------------- Iteration      1(  15)  ---------------------------------------


    POTLOK:  cpu time    0.0600: real time    0.0582
    SETDIJ:  cpu time    0.0600: real time    0.0612
     EDDAV:  cpu time    9.2486: real time    9.2764
       DOS:  cpu time    0.0080: real time    0.0080
    CHARGE:  cpu time    0.2520: real time    0.2506
    MIXING:  cpu time    0.0000: real time    0.0022
    --------------------------------------------
      LOOP:  cpu time    9.6286: real time    9.6565

 eigenvalue-minimisations  : 22552
 total energy-change (2. order) :-0.3371947E-02  (-0.2076314E-02)
 number of electron     188.0000016 magnetization      19.9254230
 augmentation part      106.2650996 magnetization      16.0355999

 Broyden mixing:
  rms(total) = 0.84865E-01    rms(broyden)= 0.84862E-01
  rms(prec ) = 0.99500E-01
  weight for this iteration     100.00

 eigenvalues of (default mixing * dielectric matrix)
  average eigenvalue GAMMA=   1.9221
  6.2831  4.2634  2.1251  0.2933  0.3485  1.2520  0.7138  1.0101  1.0101

 Free energy of the ion-electron system (eV)
  ---------------------------------------------------
  alpha Z        PSCENC =      1253.83965205
  Ewald energy   TEWEN  =    -22211.32089511
  -Hartree energ DENC   =     -8220.15295351
  -exchange      EXHF   =         0.00000000
  -V(xc)+E(xc)   XCENC  =       893.55050382
  PAW double counting   =     30432.07147671   -31891.12279436
  entropy T*S    EENTRO =         0.00095234
  eigenvalues    EBANDS =     -2242.59425357
  atomic energy  EATOM  =     31864.11063514
  Solvation  Ediel_sol  =         0.00000000
  ---------------------------------------------------
  free energy    TOTEN  =      -121.61767650 eV

  energy without entropy =     -121.61862884  energy(sigma->0) =     -121.61799395


--------------------------------------------------------------------------------------------------------




--------------------------------------- Iteration      1(  16)  ---------------------------------------


    POTLOK:  cpu time    0.0600: real time    0.0587
    SETDIJ:  cpu time    0.0600: real time    0.0603
     EDDAV:  cpu time    9.0646: real time    9.0901
       DOS:  cpu time    0.0040: real time    0.0078
    CHARGE:  cpu time    0.2760: real time    0.2759
    MIXING:  cpu time    0.0040: real time    0.0012
    --------------------------------------------
      LOOP:  cpu time    9.4686: real time    9.4940

 eigenvalue-minimisations  : 21992
 total energy-change (2. order) : 0.1643345E-03  (-0.3465502E-03)
 number of electron     188.0000016 magnetization      19.8950023
 augmentation part      106.2856089 magnetization      16.0013767

 Broyden mixing:
  rms(total) = 0.61720E-01    rms(broyden)= 0.61718E-01
  rms(prec ) = 0.75500E-01
  weight for this iteration     100.00

 eigenvalues of (default mixing * dielectric matrix)
  average eigenvalue GAMMA=   2.2075
  7.6792  4.4734  4.4734  0.2933  0.3485  1.2463  1.0220  1.0220  0.7238  0.7935

 Free energy of the ion-electron system (eV)
  ---------------------------------------------------
  alpha Z        PSCENC =      1253.83965205
  Ewald energy   TEWEN  =    -22211.32089511
  -Hartree energ DENC   =     -8220.13963250
  -exchange      EXHF   =         0.00000000
  -V(xc)+E(xc)   XCENC  =       893.46560056
  PAW double counting   =     30382.51529857   -31840.24453567
  entropy T*S    EENTRO =         0.00103093
  eigenvalues    EBANDS =     -2243.84466615
  atomic energy  EATOM  =     31864.11063514
  Solvation  Ediel_sol  =         0.00000000
  ---------------------------------------------------
  free energy    TOTEN  =      -121.61751217 eV

  energy without entropy =     -121.61854310  energy(sigma->0) =     -121.61785581


--------------------------------------------------------------------------------------------------------




--------------------------------------- Iteration      1(  17)  ---------------------------------------


    POTLOK:  cpu time    0.0560: real time    0.0574
    SETDIJ:  cpu time    0.0560: real time    0.0587
     EDDAV:  cpu time    9.5806: real time    9.6056
       DOS:  cpu time    0.0080: real time    0.0081
    CHARGE:  cpu time    0.2520: real time    0.2554
    MIXING:  cpu time    0.0040: real time    0.0017
    --------------------------------------------
      LOOP:  cpu time    9.9566: real time    9.9869

 eigenvalue-minimisations  : 23648
 total energy-change (2. order) :-0.1731077E-02  (-0.3359467E-03)
 number of electron     188.0000016 magnetization      19.8759445
 augmentation part      106.2929349 magnetization      15.9873699

 Broyden mixing:
  rms(total) = 0.44295E-01    rms(broyden)= 0.44290E-01
  rms(prec ) = 0.67139E-01
  weight for this iteration     100.00

 eigenvalues of (default mixing * dielectric matrix)
  average eigenvalue GAMMA=   2.2395
  8.0966  5.1815  4.3607  0.2933  0.3485  1.2784  1.2784  1.2396  0.7153  0.9209
  0.9209

 Free energy of the ion-electron system (eV)
  ---------------------------------------------------
  alpha Z        PSCENC =      1253.83965205
  Ewald energy   TEWEN  =    -22211.32089511
  -Hartree energ DENC   =     -8219.72484352
  -exchange      EXHF   =         0.00000000
  -V(xc)+E(xc)   XCENC  =       893.40437755
  PAW double counting   =     30378.51306124   -31835.67271928
  entropy T*S    EENTRO =         0.00119614
  eigenvalues    EBANDS =     -2244.76970744
  atomic energy  EATOM  =     31864.11063514
  Solvation  Ediel_sol  =         0.00000000
  ---------------------------------------------------
  free energy    TOTEN  =      -121.61924324 eV

  energy without entropy =     -121.62043938  energy(sigma->0) =     -121.61964195


--------------------------------------------------------------------------------------------------------




--------------------------------------- Iteration      1(  18)  ---------------------------------------


    POTLOK:  cpu time    0.0560: real time    0.0582
    SETDIJ:  cpu time    0.0600: real time    0.0601
     EDDAV:  cpu time    9.1406: real time    9.1669
       DOS:  cpu time    0.0080: real time    0.0078
    CHARGE:  cpu time    0.2560: real time    0.2557
    MIXING:  cpu time    0.0040: real time    0.0024
    --------------------------------------------
      LOOP:  cpu time    9.5246: real time    9.5511

 eigenvalue-minimisations  : 22288
 total energy-change (2. order) :-0.3363295E-03  (-0.7245473E-04)
 number of electron     188.0000016 magnetization      19.8335219
 augmentation part      106.2962606 magnetization      15.9455837

 Broyden mixing:
  rms(total) = 0.37956E-01    rms(broyden)= 0.37955E-01
  rms(prec ) = 0.62603E-01
  weight for this iteration     100.00

[...]
  0.000   0.000  -0.013   0.000   0.000   0.000  -0.000   0.000   0.005   0.000  -0.000   0.000  -1.298   0.000   0.000   0.000
 -0.000   0.000   0.000   0.000  -0.013   0.000   0.000   0.000  -0.000   0.000   0.005   0.000   0.000   0.000  -1.301   0.000
 -0.000   0.000   0.000   0.000  -0.000   0.000   0.000   0.000  -0.000   0.000   0.000   0.000  -0.000   0.000  -0.000   0.000
 -0.013   0.000   0.000   0.000  -0.000   0.000   0.005   0.000  -0.000   0.000   0.000   0.000   0.000   0.000  -0.000   0.000
 -0.000   0.000  -0.000   0.000   0.000   0.000   0.000   0.000   0.000   0.000  -0.000   0.000  -0.000   0.000   0.000   0.000
 -0.000   0.000   0.000   0.000  -0.000   0.000  -0.000   0.000   0.000   0.000  -0.000   0.000  -0.000   0.000   0.000   0.000
 -0.000   0.000   0.000   0.000  -0.000   0.000  -0.000   0.000   0.000   0.000  -0.000   0.000  -0.000   0.000   0.000   0.000
 pseudopotential strength for first ion, spin component:           2
-42.226   0.000  -0.000   0.000   0.000   0.000   6.447   0.000   0.000   0.000  -0.000   0.000   0.000   0.000  -0.000   0.000
 -0.000   0.000 -42.260   0.000  -0.000   0.000   0.000   0.000   6.461   0.000   0.000   0.000   0.006   0.000   0.000   0.000
  0.000   0.000  -0.000   0.000 -42.226   0.000  -0.000   0.000   0.000   0.000   6.447   0.000   0.000   0.000   0.006   0.000
  6.447   0.000   0.000   0.000  -0.000   0.000   5.927   0.000   0.000   0.000  -0.000   0.000  -0.000   0.000   0.000   0.000
  0.000   0.000   6.461   0.000   0.000   0.000   0.000   0.000   5.924   0.000   0.000   0.000  -0.004   0.000  -0.000   0.000
 -0.000   0.000   0.000   0.000   6.447   0.000  -0.000   0.000   0.000   0.000   5.927   0.000  -0.000   0.000  -0.004   0.000
  0.000   0.000   0.006   0.000   0.000   0.000  -0.000   0.000  -0.004   0.000  -0.000   0.000   0.068   0.000   0.000   0.000
 -0.000   0.000   0.000   0.000   0.006   0.000   0.000   0.000  -0.000   0.000  -0.004   0.000   0.000   0.000   0.084   0.000
 -0.000   0.000   0.000   0.000  -0.000   0.000   0.000   0.000   0.000   0.000   0.000   0.000  -0.000   0.000  -0.000   0.000
  0.006   0.000   0.000   0.000  -0.000   0.000  -0.004   0.000  -0.000   0.000   0.000   0.000   0.000   0.000   0.000   0.000
 -0.000   0.000  -0.000   0.000   0.000   0.000   0.000   0.000   0.000   0.000  -0.000   0.000  -0.000   0.000   0.000   0.000
  0.000   0.000   0.006   0.000   0.000   0.000  -0.000   0.000  -0.004   0.000  -0.000   0.000  -0.482   0.000   0.000   0.000
 -0.000   0.000   0.000   0.000   0.006   0.000   0.000   0.000  -0.000   0.000  -0.004   0.000   0.000   0.000  -0.466   0.000
 -0.000   0.000   0.000   0.000  -0.000   0.000   0.000   0.000   0.000   0.000   0.000   0.000  -0.000   0.000  -0.000   0.000
  0.006   0.000   0.000   0.000  -0.000   0.000  -0.004   0.000  -0.000   0.000   0.000   0.000   0.000   0.000   0.000   0.000
 -0.000   0.000  -0.000   0.000   0.000   0.000   0.000   0.000   0.000   0.000  -0.000   0.000  -0.000   0.000   0.000   0.000
 -0.000   0.000   0.000   0.000  -0.000   0.000  -0.000   0.000   0.000   0.000  -0.000   0.000  -0.000   0.000   0.000   0.000
 -0.000   0.000   0.000   0.000  -0.000   0.000  -0.000   0.000   0.000   0.000  -0.000   0.000  -0.000   0.000   0.000   0.000
 total augmentation occupancy for first ion, spin component:           1
  1.993   0.000   0.000  -0.020   0.000   0.000  -0.000  -0.000   0.000   0.002   0.000  -0.000   0.000   0.000  -0.001   0.000
  0.000   1.993   0.000   0.000  -0.021   0.000   0.002  -0.000   0.000  -0.000  -0.000  -0.001   0.000   0.000   0.000   0.000
  0.000   0.000   1.993   0.000   0.000  -0.020   0.000   0.002  -0.000  -0.000   0.000   0.000  -0.001   0.000   0.000   0.000
 -0.020   0.000   0.000   0.205   0.000  -0.000  -0.000   0.000  -0.000   0.058  -0.000  -0.000   0.000   0.000  -0.039  -0.000
  0.000  -0.021   0.000   0.000   0.220   0.000   0.070  -0.000  -0.000  -0.000  -0.000  -0.049  -0.000   0.000  -0.000   0.000
  0.000   0.000  -0.020  -0.000   0.000   0.205  -0.000   0.058   0.000   0.000   0.000   0.000  -0.039   0.000   0.000  -0.000
 -0.000   0.002   0.000   0.000   0.070   0.000   2.005  -0.000  -0.000  -0.000   0.000  -1.349   0.000   0.000   0.000  -0.000
 -0.000   0.000   0.002  -0.000  -0.000   0.058   0.000   2.108   0.000  -0.000   0.000   0.000  -1.402   0.000   0.000  -0.000
  0.000   0.000  -0.000  -0.000   0.000  -0.000  -0.000   0.000   2.004   0.000   0.000   0.000   0.000  -1.424   0.000  -0.000
  0.002   0.000  -0.000   0.058  -0.000   0.000  -0.000   0.000   0.000   2.108  -0.000   0.000  -0.000   0.000  -1.402  -0.000
  0.000   0.000   0.000   0.000  -0.000   0.000   0.000   0.000   0.000   0.000   2.450  -0.000   0.000   0.000   0.000  -1.715
 -0.000  -0.001   0.000  -0.000  -0.049   0.000  -1.349   0.000   0.000   0.000  -0.000   2.154  -0.000   0.000   0.000   0.000
  0.000  -0.000  -0.001   0.000  -0.000  -0.039  -0.000  -1.402   0.000  -0.000   0.000   0.000   2.165   0.000   0.000   0.000
  0.000   0.000   0.000   0.000   0.000   0.000   0.000   0.000  -1.424  -0.000   0.000   0.000   0.000   2.023   0.000   0.000
 -0.001   0.000   0.000  -0.039  -0.000  -0.000   0.000   0.000  -0.000  -1.402   0.000  -0.000   0.000   0.000   2.165   0.000
  0.000   0.000   0.000  -0.000   0.000  -0.000  -0.000   0.000  -0.000   0.000  -1.715   0.000  -0.000   0.000   0.000   2.174
  0.000   0.000   0.000   0.000   0.000   0.000   0.000   0.000  -0.055   0.000   0.000   0.000  -0.000   0.055   0.000   0.000
 -0.000   0.000  -0.000   0.000   0.000   0.000   0.000   0.000  -0.004  -0.000   0.000   0.000  -0.000   0.002  -0.000  -0.000
 total augmentation occupancy for first ion, spin component:           2
 -0.001   0.000   0.000  -0.005   0.000   0.000  -0.000  -0.000  -0.000   0.007   0.000  -0.000   0.000   0.000  -0.008   0.000
  0.000  -0.001   0.000   0.000  -0.005   0.000   0.007  -0.000   0.000  -0.000  -0.000  -0.008   0.000   0.000   0.000  -0.000
  0.000   0.000  -0.001   0.000   0.000  -0.005   0.000   0.007   0.000  -0.000   0.000   0.000  -0.008   0.000   0.000   0.000
 -0.005   0.000   0.000  -0.004   0.000   0.000   0.000   0.000   0.000  -0.061   0.000   0.000   0.000   0.000   0.021   0.000
  0.000  -0.005   0.000   0.000  -0.009   0.000  -0.045  -0.000  -0.000   0.000   0.000   0.013   0.000   0.000   0.000   0.000
  0.000   0.000  -0.005   0.000   0.000  -0.004   0.000  -0.061   0.000   0.000   0.000   0.000   0.021   0.000   0.000   0.000
 -0.000   0.007  -0.000   0.000  -0.045   0.000   0.724   0.000   0.000   0.000   0.000  -0.185  -0.000   0.000   0.000   0.000
 -0.000   0.000   0.007   0.000   0.000  -0.061   0.000   0.788  -0.000  -0.000   0.000  -0.000  -0.216   0.000   0.000  -0.000
 -0.000   0.000   0.000   0.000   0.000  -0.000   0.000   0.000   1.276   0.000   0.000   0.000   0.000  -0.346   0.000   0.000
  0.007  -0.000  -0.000  -0.061   0.000   0.000   0.000   0.000   0.000   0.788   0.000   0.000   0.000   0.000  -0.216   0.000
  0.000  -0.000   0.000  -0.000   0.000   0.000  -0.000  -0.000   0.000   0.000   1.683   0.000  -0.000   0.000  -0.000  -0.528
  0.000  -0.008   0.000   0.000   0.013   0.000  -0.185   0.000   0.000   0.000   0.000  -0.155   0.000   0.000   0.000   0.000
  0.000  -0.000  -0.008   0.000   0.000   0.021   0.000  -0.216   0.000   0.000   0.000   0.000  -0.145   0.000   0.000   0.000
  0.000   0.000   0.000   0.000  -0.000   0.000   0.000  -0.000  -0.346  -0.000   0.000   0.000   0.000  -0.153   0.000   0.000
 -0.008  -0.000   0.000   0.021   0.000   0.000   0.000   0.000   0.000  -0.216  -0.000   0.000   0.000   0.000  -0.145  -0.000
  0.000  -0.000   0.000   0.000   0.000   0.000   0.000  -0.000  -0.000   0.000  -0.528   0.000   0.000   0.000   0.000  -0.064
  0.000   0.000   0.000   0.000   0.000   0.000  -0.000   0.000  -0.051   0.000  -0.000   0.000   0.000   0.016   0.000   0.000
 -0.000   0.000   0.000   0.000   0.000   0.000   0.000   0.000  -0.003  -0.000   0.000   0.000   0.000   0.000   0.000  -0.000


------------------------ aborting loop because EDIFF is reached ----------------------------------------


 


 total charge     
 
# of ion       s       p       d       tot
------------------------------------------
    1        0.345   6.397   6.288  13.029
    2        0.345   6.397   6.288  13.029
    3        0.345   6.397   6.288  13.029
    4        0.345   6.397   6.288  13.029
    5        0.378   6.399   6.072  12.850
    6        0.378   6.399   6.072  12.850
    7        0.378   6.399   6.072  12.850
    8        0.378   6.399   6.072  12.850
    9        0.448   6.534   7.453  14.435
   10        0.448   6.534   7.453  14.435
   11        0.448   6.534   7.453  14.435
   12        0.448   6.534   7.453  14.435
   13        0.707   0.887   0.000   1.594
   14        0.707   0.887   0.000   1.594
   15        0.707   0.887   0.000   1.594
   16        0.707   0.887   0.000   1.594
--------------------------------------------------
tot          7.512  80.867  79.253 167.632
 


 magnetization (x)
 
# of ion       s       p       d       tot
------------------------------------------
    1        0.001  -0.013   1.340   1.329
    2        0.001  -0.013   1.340   1.329
    3        0.001  -0.013   1.340   1.329
    4        0.001  -0.013   1.340   1.329
    5        0.005  -0.003   2.687   2.689
    6        0.005  -0.003   2.687   2.689
    7        0.005  -0.003   2.687   2.689
    8        0.005  -0.003   2.687   2.689
    9       -0.009  -0.029   1.089   1.051
   10       -0.009  -0.029   1.089   1.051
   11       -0.009  -0.029   1.089   1.051
   12       -0.009  -0.029   1.089   1.051
   13        0.004  -0.030   0.000  -0.025
   14        0.004  -0.030   0.000  -0.025
   15        0.004  -0.030   0.000  -0.025
   16        0.004  -0.030   0.000  -0.025
--------------------------------------------------
tot          0.006  -0.297  20.464  20.173
 
    CHARGE:  cpu time    0.3160: real time    0.3382
    FORLOC:  cpu time    0.0000: real time    0.0015
    FORNL :  cpu time    1.2081: real time    1.2112
    STRESS:  cpu time    3.6642: real time    3.6769
    FORCOR:  cpu time    0.0520: real time    0.0524
    FORHAR:  cpu time    0.0080: real time    0.0081
    MIXING:  cpu time    0.0040: real time    0.0017
    OFIELD:  cpu time    0.0000: real time    0.0000

  FORCE on cell =-STRESS in cart. coord.  units (eV):
  Direction    XX          YY          ZZ          XY          YZ          ZX
  --------------------------------------------------------------------------------------
  Alpha Z  1253.83965  1253.83965  1253.83965
  Ewald   -7414.73255 -7414.73255 -7381.91535    -0.00000     0.00000     0.00000
  Hartree  2732.00592  2732.00592  2755.64752    -0.00000    -0.00000    -0.00000
  E(xc)   -1169.88348 -1169.88348 -1169.89560     0.00000     0.00000     0.00000
  Local    1347.45543  1347.45543  1293.02410     0.00000     0.00000     0.00000
  n-local  -218.55066  -216.63452  -217.65198    -0.75221    -1.04271    -0.50557
  augment  1695.14438  1695.14438  1693.52760     0.00000     0.00000     0.00000
  Kinetic  1768.95974  1778.61427  1773.48061    -1.26806    -1.24954    -0.51690
  Fock        0.00000     0.00000     0.00000     0.00000     0.00000     0.00000
  -------------------------------------------------------------------------------------
  Total       0.02376     0.02376     0.05655     0.00000     0.00000     0.00000
  in kB       0.21682     0.21682     0.51596     0.00000     0.00000     0.00000
  external pressure =        0.32 kB  Pullay stress =        0.00 kB


 VOLUME and BASIS-vectors are now :
 -----------------------------------------------------------------------------
  energy-cutoff  :      500.00
  volume of cell :      175.61
      direct lattice vectors                 reciprocal lattice vectors
     5.628057472  0.000000000  0.000000000     0.177681199  0.000000000  0.000000000
     0.000000000  5.628057472  0.000000000     0.000000000  0.177681199  0.000000000
     0.000000000  0.000000000  5.544066764     0.000000000  0.000000000  0.180373008

  length of vectors
     5.628057472  5.628057472  5.544066764     0.177681199  0.177681199  0.180373008


 FORCES acting on ions
    electron-ion (+dipol)            ewald-force                    non-local-force                 convergence-correction
 -----------------------------------------------------------------------------------------------
   0.856E-12 0.101E-11 -.110E-11   -.711E-14 -.497E-13 0.355E-13   0.000E+00 0.867E-18 0.000E+00   -.330E-12 -.760E-13 0.454E-13
   -.102E-11 -.172E-12 -.168E-12   -.142E-13 -.568E-13 0.355E-13   0.000E+00 0.867E-18 0.000E+00   0.781E-12 0.141E-12 0.357E-13
   0.269E-11 0.217E-11 -.486E-13   -.711E-14 -.995E-13 0.639E-13   0.000E+00 0.000E+00 0.000E+00   -.868E-12 -.105E-12 -.694E-12
   0.846E-12 -.137E-12 -.740E-13   -.142E-13 -.995E-13 0.639E-13   0.000E+00 0.000E+00 0.000E+00   0.246E-12 0.103E-12 -.687E-12
   0.826E-12 0.905E-12 -.620E-12   -.115E-12 -.348E-15 -.351E-14   0.238E-23 -.414E-24 0.207E-23   -.152E-12 -.297E-12 0.167E-12
   0.800E-12 0.265E-11 0.202E-12   -.102E-14 -.549E-13 -.624E-13   0.331E-23 0.827E-24 0.414E-23   -.174E-12 -.382E-12 -.313E-12
   0.178E-11 0.768E-11 0.696E-11   0.124E-14 -.572E-13 -.624E-13   -.290E-23 0.000E+00 0.827E-24   0.942E-13 -.219E-12 -.349E-12
   0.158E-11 0.124E-10 0.899E-11   -.112E-12 0.192E-14 -.351E-14   -.414E-23 0.000E+00 0.372E-23   0.393E-13 -.362E-12 0.158E-12
   0.147E-11 -.166E-12 0.936E-10   0.284E-13 0.426E-13 0.142E-13   -.867E-18 0.000E+00 -.173E-17   -.412E-12 -.380E-13 -.901E-12
   -.638E-12 0.205E-11 0.936E-10   0.284E-13 0.284E-13 0.142E-13   -.867E-18 0.000E+00 -.173E-17   0.754E-12 -.179E-13 -.885E-12
   0.258E-11 -.145E-12 -.939E-10   0.142E-13 0.568E-13 0.000E+00   -.867E-18 0.867E-18 0.867E-18   -.995E-12 -.457E-13 0.719E-13
   0.519E-12 0.207E-11 -.939E-10   0.142E-13 0.711E-13 0.000E+00   -.867E-18 0.867E-18 0.867E-18   0.154E-12 -.298E-13 0.779E-13
   -.812E-13 -.395E-13 0.134E-12   0.286E-13 0.425E-13 -.143E-13   0.103E-23 -.414E-24 0.207E-24   -.456E-13 0.411E-13 -.101E-12
   -.164E-12 0.432E-11 -.906E-12   0.271E-13 0.425E-13 0.294E-15   0.724E-24 -.414E-24 0.000E+00   0.334E-13 0.431E-13 0.116E-12
   -.889E-13 0.360E-12 0.335E-12   0.155E-13 0.569E-13 0.294E-15   -.517E-24 0.414E-24 0.000E+00   -.422E-13 0.176E-13 0.114E-12
   -.306E-12 -.823E-12 0.462E-11   0.424E-13 0.427E-13 -.146E-13   -.620E-24 0.414E-24 0.207E-24   0.301E-13 0.958E-14 -.986E-13
 -----------------------------------------------------------------------------------------------
   0.117E-10 0.341E-10 0.177E-10   -.706E-13 -.325E-13 0.672E-13   -.347E-17 0.347E-17 -.173E-17   -.886E-12 -.122E-11 -.324E-11
 
 
 POSITION                                       TOTAL-FORCE (eV/Angst)
 -----------------------------------------------------------------------------------
      2.81403      2.81403      2.77203         0.000000      0.000000     -0.000000
      0.00000      0.00000      2.77203         0.000000     -0.000000     -0.000000
      2.81403      2.81403      0.00000        -0.000000      0.000000     -0.000000
      0.00000      0.00000      0.00000        -0.000000      0.000000     -0.000000
      1.40701      1.40701      4.15805         0.000000     -0.000000     -0.000000
      1.40701      4.22104      1.38602         0.000000      0.000000      0.000000
      4.22104      1.40701      1.38602        -0.000000      0.000000      0.000000
      4.22104      4.22104      4.15805        -0.000000     -0.000000     -0.000000
      2.81403      0.00000      0.00000         0.000000      0.000000      0.000000
      0.00000      2.81403      0.00000         0.000000      0.000000      0.000000
      2.81403      0.00000      2.77203        -0.000000      0.000000     -0.000000
      0.00000      2.81403      2.77203        -0.000000      0.000000     -0.000000
      1.40701      1.40701      1.38602        -0.000000     -0.000000      0.000000
      4.22104      1.40701      4.15805        -0.000000     -0.000000     -0.000000
      1.40701      4.22104      4.15805         0.000000      0.000000     -0.000000
      4.22104      4.22104      1.38602         0.000000     -0.000000      0.000000
 -----------------------------------------------------------------------------------
    total drift:                                0.000000      0.000000      0.000000


--------------------------------------------------------------------------------------------------------



  FREE ENERGIE OF THE ION-ELECTRON SYSTEM (eV)
  ---------------------------------------------------
  free  energy   TOTEN  =      -121.61952051 eV

  energy  without entropy=     -121.62050891  energy(sigma->0) =     -121.61984998
 


--------------------------------------------------------------------------------------------------------


    POTLOK:  cpu time    0.1160: real time    0.1192


--------------------------------------------------------------------------------------------------------


     LOOP+:  cpu time  224.3380: real time  225.3082
    4ORBIT:  cpu time    0.0000: real time    0.0000
 


 total charge     
 
# of ion       s       p       d       tot
------------------------------------------
    1        0.345   6.397   6.288  13.029
    2        0.345   6.397   6.288  13.029
    3        0.345   6.397   6.288  13.029
    4        0.345   6.397   6.288  13.029
    5        0.378   6.399   6.072  12.850
    6        0.378   6.399   6.072  12.850
    7        0.378   6.399   6.072  12.850
    8        0.378   6.399   6.072  12.850
    9        0.448   6.534   7.453  14.435
   10        0.448   6.534   7.453  14.435
   11        0.448   6.534   7.453  14.435
   12        0.448   6.534   7.453  14.435
   13        0.707   0.887   0.000   1.594
   14        0.707   0.887   0.000   1.594
   15        0.707   0.887   0.000   1.594
   16        0.707   0.887   0.000   1.594
--------------------------------------------------
tot          7.512  80.867  79.253 167.632
 


 magnetization (x)
 
# of ion       s       p       d       tot
------------------------------------------
    1        0.001  -0.013   1.340   1.329
    2        0.001  -0.013   1.340   1.329
    3        0.001  -0.013   1.340   1.329
    4        0.001  -0.013   1.340   1.329
    5        0.005  -0.003   2.687   2.689
    6        0.005  -0.003   2.687   2.689
    7        0.005  -0.003   2.687   2.689
    8        0.005  -0.003   2.687   2.689
    9       -0.009  -0.029   1.089   1.051
   10       -0.009  -0.029   1.089   1.051
   11       -0.009  -0.029   1.089   1.051
   12       -0.009  -0.029   1.089   1.051
   13        0.004  -0.030   0.000  -0.025
   14        0.004  -0.030   0.000  -0.025
   15        0.004  -0.030   0.000  -0.025
   16        0.004  -0.030   0.000  -0.025
--------------------------------------------------
tot          0.006  -0.297  20.464  20.173
 

 total amount of memory used by VASP MPI-rank0    49099. kBytes
=======================================================================

   base      :      30000. kBytes
   nonlr-proj:       2762. kBytes
   fftplans  :       3102. kBytes
   grid      :       2688. kBytes
   one-center:         62. kBytes
   wavefun   :      10485. kBytes
 
  
  
 General timing and accounting informations for this job:
 ========================================================
  
                  Total CPU time used (sec):      234.879
                            User time (sec):      233.399
                          System time (sec):        1.480
                         Elapsed time (sec):      237.092
  
                   Maximum memory used (kb):     1160112.
                   Average memory used (kb):           0.
  
                          Minor page faults:       290942
                          Major page faults:            0
                 Voluntary context switches:         4420
