 vasp.6.1.1 19Jun20 (build Jan 21 2021 08:43:03) complex                        
  
 executed on             LinuxIFC date 2023.04.01  02:25:16
 running on   80 total cores
 distrk:  each k-point on   80 cores,    1 groups
 distr:  one band on NCORE=  10 cores,    8 groups


--------------------------------------------------------------------------------------------------------


 INCAR:
 POTCAR:    PAW_PBE Fe_pv 02Aug2007               
 POTCAR:    PAW_PBE Co_pv 23Apr2009               
 POTCAR:      PAW_PBE In 08Apr2002                
 POTCAR:    PAW_PBE Fe_pv 02Aug2007               
   VRHFIN =Fe:  3pd7s1                                                                              
   LEXCH  = PE                                                                                      
   EATOM  =  2457.4239 eV,  180.6156 Ry                                                             
                                                                                                    
   TITEL  = PAW_PBE Fe_pv 02Aug2007                                                                 
   LULTRA =        F    use ultrasoft PP ?                                                          
   IUNSCR =        1    unscreen: 0-lin 1-nonlin 2-no                                               
   RPACOR =    1.750    partial core radius                                                         
   POMASS =   55.847; ZVAL   =   14.000    mass and valenz                                          
   RCORE  =    2.200    outmost cutoff radius                                                       
   RWIGS  =    2.200; RWIGS  =    1.164    wigner-seitz radius (au A)                               
   ENMAX  =  293.238; ENMIN  =  219.928 eV                                                          
   ICORE  =        3    local potential                                                             
   LCOR   =        T    correct aug charges                                                         
   LPAW   =        T    paw PP                                                                      
   EAUG   =  578.342                                                                                
   DEXC   =    0.000                                                                                
   RMAX   =    2.249    core radius for proj-oper                                                   
   RAUG   =    1.300    factor for augmentation sphere                                              
   RDEP   =    2.296    radius for radial grids                                                     
   RDEPT  =    1.766    core radius for aug-charge                                                  
                                                                                                    
   Atomic configuration                                                                             
    8 entries                                                                                       
     n  l   j            E        occ.                                                              
     1  0  0.50     -6993.8440   2.0000                                                             
     2  0  0.50      -814.6047   2.0000                                                             
     2  1  1.50      -693.3689   6.0000                                                             
     3  0  0.50       -89.4732   2.0000                                                             
     3  1  1.50       -55.6373   6.0000                                                             
     3  2  2.50        -3.8151   7.0000                                                             
     4  0  0.50        -4.2551   1.0000                                                             
     4  3  2.50        -1.3606   0.0000                                                             
   Description                                                                                      
     l       E           TYP  RCUT    TYP  RCUT                                                     
     1    -55.6372668     23  2.000                                                                 
     1     -5.4423304     23  2.000                                                                 
     2     -3.8151096     23  2.200                                                                 
     2     -5.1756922     23  2.200                                                                 
     0     -4.2550951     23  2.200                                                                 
     0     27.2116520     23  2.200                                                                 
     3     -1.3605826     23  2.200                                                                 
  local pseudopotential read in
  partial core-charges read in
  partial kinetic energy density read in
  atomic valenz-charges read in
  non local Contribution for L=           1  read in
    real space projection operators read in
  non local Contribution for L=           1  read in
    real space projection operators read in
  non local Contribution for L=           2  read in
    real space projection operators read in
  non local Contribution for L=           2  read in
    real space projection operators read in
  non local Contribution for L=           0  read in
    real space projection operators read in
  non local Contribution for L=           0  read in
    real space projection operators read in
    PAW grid and wavefunctions read in
 
   number of l-projection  operators is LMAX  =           6
   number of lm-projection operators is LMMAX =          18
 
 POTCAR:    PAW_PBE Co_pv 23Apr2009               
   VRHFIN =Co: 3pd7s1                                                                               
   LEXCH  = PE                                                                                      
   EATOM  =  2948.1334 eV,  216.6817 Ry                                                             
                                                                                                    
   TITEL  = PAW_PBE Co_pv 23Apr2009                                                                 
   LULTRA =        F    use ultrasoft PP ?                                                          
   IUNSCR =        1    unscreen: 0-lin 1-nonlin 2-no                                               
   RPACOR =    2.000    partial core radius                                                         
   POMASS =   58.933; ZVAL   =   15.000    mass and valenz                                          
   RCORE  =    2.300    outmost cutoff radius                                                       
   RWIGS  =    2.460; RWIGS  =    1.302    wigner-seitz radius (au A)                               
   ENMAX  =  271.042; ENMIN  =  203.281 eV                                                          
   ICORE  =        3    local potential                                                             
   LCOR   =        T    correct aug charges                                                         
   LPAW   =        T    paw PP                                                                      
   EAUG   =  543.066                                                                                
   DEXC   =    0.000                                                                                
   RMAX   =    2.360    core radius for proj-oper                                                   
   RAUG   =    1.300    factor for augmentation sphere                                              
   RDEP   =    2.393    radius for radial grids                                                     
   RDEPT  =    1.841    core radius for aug-charge                                                  
                                                                                                    
   Atomic configuration                                                                             
    8 entries                                                                                       
     n  l   j            E        occ.                                                              
     1  0  0.50     -7587.6674   2.0000                                                             
     2  0  0.50      -893.6084   2.0000                                                             
     2  1  1.50      -764.5805   6.0000                                                             
     3  0  0.50       -97.5973   2.0000                                                             
     3  1  1.50       -60.9648   6.0000                                                             
     3  2  2.50        -4.2382   8.0000                                                             
     4  0  0.50        -4.3746   1.0000                                                             
     4  3  2.50        -1.3606   0.0000                                                             
   Description                                                                                      
     l       E           TYP  RCUT    TYP  RCUT                                                     
     1    -60.9647990     23  2.000                                                                 
     1     -5.4423304     23  2.000                                                                 
     2     -4.2382362     23  2.300                                                                 
     2     -5.5988188     23  2.300                                                                 
     0     -4.3745797     23  2.300                                                                 
     0      5.7660125     23  2.300                                                                 
     3     -1.3605826     23  2.300                                                                 
  local pseudopotential read in
  partial core-charges read in
  partial kinetic energy density read in
  atomic valenz-charges read in
  non local Contribution for L=           1  read in
    real space projection operators read in
  non local Contribution for L=           1  read in
    real space projection operators read in
  non local Contribution for L=           2  read in
    real space projection operators read in
  non local Contribution for L=           2  read in
    real space projection operators read in
  non local Contribution for L=           0  read in
    real space projection operators read in
  non local Contribution for L=           0  read in
    real space projection operators read in
    PAW grid and wavefunctions read in
 
   number of l-projection  operators is LMAX  =           6
   number of lm-projection operators is LMMAX =          18
 
 POTCAR:      PAW_PBE In 08Apr2002                
   VRHFIN =In: s2p1                                                                                 
   LEXCH  = PE                                                                                      
   EATOM  =    53.7908 eV,    3.9535 Ry                                                             
                                                                                                    
   TITEL  = PAW_PBE In 08Apr2002                                                                    
   LULTRA =        F    use ultrasoft PP ?                                                          
   IUNSCR =        1    unscreen: 0-lin 1-nonlin 2-no                                               
   RPACOR =    2.400    partial core radius                                                         
   POMASS =  114.820; ZVAL   =    3.000    mass and valenz                                          
   RCORE  =    3.100    outmost cutoff radius                                                       
   RWIGS  =    3.170; RWIGS  =    1.677    wigner-seitz radius (au A)                               
   ENMAX  =   95.934; ENMIN  =   71.951 eV                                                          
   ICORE  =        3    local potential                                                             
   LCOR   =        T    correct aug charges                                                         
   LPAW   =        T    paw PP                                                                      
   EAUG   =  237.125                                                                                
   DEXC   =    0.000                                                                                
   RMAX   =    3.168    core radius for proj-oper                                                   
   RAUG   =    1.300    factor for augmentation sphere                                              
   RDEP   =    3.187    radius for radial grids                                                     
   RDEPT  =    2.711    core radius for aug-charge                                                  
                                                                                                    
   Atomic configuration                                                                             
   13 entries                                                                                       
     n  l   j            E        occ.                                                              
     1  0  0.50    -27747.9169   2.0000                                                             
     2  0  0.50     -4154.4438   2.0000                                                             
     2  1  1.50     -3728.4305   6.0000                                                             
     3  0  0.50      -788.3680   2.0000                                                             
     3  1  1.50      -648.9215   6.0000                                                             
     3  2  2.50      -432.5893  10.0000                                                             
     4  0  0.50      -119.6363   2.0000                                                             
     4  1  1.50       -78.1086   6.0000                                                             
     4  2  2.50       -18.6227  10.0000                                                             
     5  0  0.50        -8.2107   2.0000                                                             
     5  1  0.50        -2.5185   1.0000                                                             
     5  2  2.50        -1.3606   0.0000                                                             
     4  3  2.50        -2.7212   0.0000                                                             
   Description                                                                                      
     l       E           TYP  RCUT    TYP  RCUT                                                     
     0     -8.2107306     23  3.100                                                                 
     0     -6.1485975     23  3.100                                                                 
     1     -2.5184867     23  3.100                                                                 
     1      3.2427302     23  3.100                                                                 
     2     -1.3605826     23  3.100                                                                 
     3     -1.3605826     23  3.100                                                                 
  local pseudopotential read in
  partial core-charges read in
  partial kinetic energy density read in
  atomic valenz-charges read in
  non local Contribution for L=           0  read in
    real space projection operators read in
  non local Contribution for L=           0  read in
    real space projection operators read in
  non local Contribution for L=           1  read in
    real space projection operators read in
  non local Contribution for L=           1  read in
    real space projection operators read in
  non local Contribution for L=           2  read in
    real space projection operators read in
    PAW grid and wavefunctions read in
 
   number of l-projection  operators is LMAX  =           5
   number of lm-projection operators is LMMAX =          13
 
 Optimization of the real space projectors (new method)

 maximal supplied QI-value         = 17.01
 optimisation between [QCUT,QGAM] = [ 11.40, 22.79] = [ 36.36,145.44] Ry 
 Optimized for a Real-space Cutoff    1.47 Angstroem

   l    n(q)    QCUT    max X(q) W(low)/X(q) W(high)/X(q)  e(spline) 
   1     10    11.395     4.267    0.90E-04    0.11E-03    0.18E-06
   1     10    11.395     5.750    0.14E-03    0.15E-03    0.25E-06
   2      9    11.395    53.656    0.13E-03    0.36E-04    0.15E-06
   2      9    11.395    49.521    0.14E-03    0.36E-04    0.15E-06
   0     10    11.395    31.246    0.58E-04    0.17E-05    0.98E-07
   0     10    11.395    12.201    0.41E-04    0.11E-05    0.82E-07
 Optimization of the real space projectors (new method)

 maximal supplied QI-value         = 16.25
 optimisation between [QCUT,QGAM] = [ 11.38, 22.75] = [ 36.24,144.96] Ry 
 Optimized for a Real-space Cutoff    1.47 Angstroem

   l    n(q)    QCUT    max X(q) W(low)/X(q) W(high)/X(q)  e(spline) 
   1     10    11.376     4.946    0.88E-04    0.16E-03    0.15E-06
   1     10    11.376     5.991    0.13E-03    0.24E-03    0.21E-06
   2      9    11.376    46.947    0.87E-04    0.91E-04    0.20E-06
   2      9    11.376    42.928    0.91E-04    0.94E-04    0.20E-06
   0     10    11.376    68.324    0.58E-04    0.21E-04    0.82E-07
   0     10    11.376    36.926    0.52E-04    0.19E-04    0.78E-07
 Optimization of the real space projectors (new method)

 maximal supplied QI-value         = 12.09
 optimisation between [QCUT,QGAM] = [ 11.37, 22.86] = [ 36.19,146.31] Ry 
 Optimized for a Real-space Cutoff    1.66 Angstroem

   l    n(q)    QCUT    max X(q) W(low)/X(q) W(high)/X(q)  e(spline) 
   0     11    11.369   106.980    0.13E-03    0.70E-04    0.20E-05
   0     11    11.369    81.086    0.14E-03    0.77E-04    0.22E-05
   1     11    11.369    53.097    0.15E-03    0.30E-03    0.86E-06
   1     11    11.369    32.621    0.14E-03    0.28E-03    0.81E-06
   2     10    11.369     8.820    0.13E-03    0.44E-04    0.34E-06
  PAW_PBE Fe_pv 02Aug2007               :
 energy of atom  1       EATOM=-2457.4239
 kinetic energy error for atom=    0.0069 (will be added to EATOM!!)
  PAW_PBE Co_pv 23Apr2009               :
 energy of atom  2       EATOM=-2948.1334
 kinetic energy error for atom=    0.0060 (will be added to EATOM!!)
    PAW_PBE In 08Apr2002                :
 energy of atom  3       EATOM=  -53.7908
 kinetic energy error for atom=    0.0000 (will be added to EATOM!!)
 
 
 POSCAR: Heusler tetragonGa
  positions in direct lattice
  velocities in cartesian coordinates
 exchange correlation table for  LEXCH =        8
   RHO(1)=    0.500       N(1)  =     2000
   RHO(2)=  100.500       N(2)  =     4000
 


--------------------------------------------------------------------------------------------------------


 ion  position               nearest neighbor table
   1  0.250  0.250  0.250-   9 2.61  10 2.61  11 2.61  12 2.61  13 2.61  14 2.61  15 2.61  16 2.61

   2  0.250  0.750  0.250-   9 2.61  10 2.61  11 2.61  12 2.61  13 2.61  14 2.61  15 2.61  16 2.61

   3  0.750  0.250  0.250-   9 2.61  10 2.61  11 2.61  12 2.61  13 2.61  14 2.61  15 2.61  16 2.61

   4  0.750  0.750  0.250-   9 2.61  10 2.61  11 2.61  12 2.61  13 2.61  14 2.61  15 2.61  16 2.61

   5  0.250  0.250  0.750-   9 2.61  10 2.61  11 2.61  12 2.61  13 2.61  14 2.61  15 2.61  16 2.61

   6  0.750  0.250  0.750-   9 2.61  10 2.61  11 2.61  12 2.61  13 2.61  14 2.61  15 2.61  16 2.61

   7  0.250  0.750  0.750-   9 2.61  10 2.61  11 2.61  12 2.61  13 2.61  14 2.61  15 2.61  16 2.61

   8  0.750  0.750  0.750-   9 2.61  10 2.61  11 2.61  12 2.61  13 2.61  14 2.61  15 2.61  16 2.61

   9  0.500  0.000  0.000-   1 2.61   2 2.61   3 2.61   4 2.61   5 2.61   6 2.61   7 2.61   8 2.61

  10  0.000  0.500  0.000-   1 2.61   2 2.61   3 2.61   4 2.61   5 2.61   6 2.61   7 2.61   8 2.61

  11  0.000  0.000  0.500-   1 2.61   2 2.61   3 2.61   4 2.61   5 2.61   6 2.61   7 2.61   8 2.61

  12  0.500  0.500  0.500-   1 2.61   2 2.61   3 2.61   4 2.61   5 2.61   6 2.61   7 2.61   8 2.61

  13  0.500  0.000  0.500-   1 2.61   2 2.61   3 2.61   4 2.61   5 2.61   6 2.61   7 2.61   8 2.61

  14  0.000  0.500  0.500-   1 2.61   2 2.61   3 2.61   4 2.61   5 2.61   6 2.61   7 2.61   8 2.61

  15  0.500  0.500  0.000-   1 2.61   2 2.61   3 2.61   4 2.61   5 2.61   6 2.61   7 2.61   8 2.61

  16  0.000  0.000  0.000-   1 2.61   2 2.61   3 2.61   4 2.61   5 2.61   6 2.61   7 2.61   8 2.61

 
  LATTYP: Found a simple tetragonal cell.
 ALAT       =     6.0392898149
 C/A-ratio  =     0.9997722544
  
  Lattice vectors:
  
 A1 = (   6.0392898149,   0.0000000000,   0.0000000000)
 A2 = (   0.0000000000,   6.0392898149,   0.0000000000)
 A3 = (   0.0000000000,   0.0000000000,   6.0379143935)


Analysis of symmetry for initial positions (statically):
=====================================================================
 Subroutine PRICEL returns following result:
 
  LATTYP: Found a body centered tetragonal cell.
 ALAT       =     4.2704227817
 C/A-ratio  =     1.4138914815
  
  Lattice vectors:
  
 A1 = (   3.0196449075,   0.0000000000,   3.0189571967)
 A2 = (  -3.0196449075,   0.0000000000,   3.0189571967)
 A3 = (   0.0000000000,  -3.0196449075,  -3.0189571967)
 
   4 primitive cells build up your supercell.
 

 Routine SETGRP: Setting up the symmetry group for a 
 simple tetragonal supercell.


 Subroutine GETGRP returns: Found 16 space group operations
 (whereof 16 operations were pure point group operations)
 out of a pool of 16 trial point group operations.


The static configuration has the point symmetry D_4h.


Analysis of symmetry for dynamics (positions and initial velocities):
=====================================================================
 Subroutine PRICEL returns following result:
 
  LATTYP: Found a body centered tetragonal cell.
 ALAT       =     4.2704227817
 C/A-ratio  =     1.4138914815
  
  Lattice vectors:
  
 A1 = (   3.0196449075,   0.0000000000,   3.0189571967)
 A2 = (  -3.0196449075,   0.0000000000,   3.0189571967)
 A3 = (   0.0000000000,  -3.0196449075,  -3.0189571967)
 
   4 primitive cells build up your supercell.
 

 Routine SETGRP: Setting up the symmetry group for a 
 simple tetragonal supercell.


 Subroutine GETGRP returns: Found 16 space group operations
 (whereof 16 operations were pure point group operations)
 out of a pool of 16 trial point group operations.


The dynamic configuration has the point symmetry D_4h.


Analysis of structural, dynamic, and magnetic symmetry:
=====================================================================
 Subroutine PRICEL returns following result:
 
  LATTYP: Found a body centered tetragonal cell.
 ALAT       =     4.2704227817
 C/A-ratio  =     1.4138914815
  
  Lattice vectors:
  
 A1 = (   3.0196449075,   0.0000000000,   3.0189571967)
 A2 = (  -3.0196449075,   0.0000000000,   3.0189571967)
 A3 = (   0.0000000000,  -3.0196449075,  -3.0189571967)
 
   4 primitive cells build up your supercell.
 

 Routine SETGRP: Setting up the symmetry group for a 
 simple tetragonal supercell.


 Subroutine GETGRP returns: Found 16 space group operations
 (whereof 16 operations were pure point group operations)
 out of a pool of 16 trial point group operations.


The magnetic configuration has the point symmetry D_4h.


 Subroutine INISYM returns: Found 16 space group operations
 (whereof 16 operations are pure point group operations),
 and found     4 'primitive' translations


----------------------------------------------------------------------------------------

                                     Primitive cell                                     

  volume of cell :      55.0552

  direct lattice vectors                    reciprocal lattice vectors
     3.019644907  0.000000000  3.018957197     0.165582383 -0.165582383  0.165620102
    -3.019644907  0.000000000  3.018957197    -0.165582383 -0.165582383  0.165620102
     0.000000000 -3.019644907 -3.018957197     0.000000000 -0.331164766  0.000000000

  length of vectors
     4.269936524  4.269936524  4.269936524     0.286818879  0.286818879  0.331164766

  position of ions in fractional coordinates (direct lattice)
     0.250000000  0.750000000  0.500000000
     0.750000000  0.250000000  0.500000000
     0.500000000  0.500000000  0.000000000
     1.000000000  1.000000000  0.000000000

  ion indices of the primitive-cell ions
   primitive index   ion index
                 1           1
                 2           5
                 3           9
                 4          13

----------------------------------------------------------------------------------------

 
 
 KPOINTS: Ni7CoMn5CrSn2                           

Automatic generation of k-mesh.
Space group operators:
 irot       det(A)        alpha          n_x          n_y          n_z        tau_x        tau_y        tau_z
    1     1.000000     0.000001     1.000000     0.000000     0.000000     0.000000     0.000000     0.000000
    2    -1.000000     0.000001     1.000000     0.000000     0.000000     0.000000     0.000000     0.000000
    3     1.000000    90.000000     0.000000     0.000000    -1.000000     0.000000     0.000000     0.000000
    4    -1.000000    90.000000     0.000000     0.000000    -1.000000     0.000000     0.000000     0.000000
    5     1.000000   180.000000     0.000000     0.000000     1.000000     0.000000     0.000000     0.000000
    6    -1.000000   180.000000     0.000000     0.000000     1.000000     0.000000     0.000000     0.000000
    7     1.000000    90.000000     0.000000     0.000000     1.000000     0.000000     0.000000     0.000000
    8    -1.000000    90.000000     0.000000     0.000000     1.000000     0.000000     0.000000     0.000000
    9     1.000000   180.000000     0.000000     1.000000     0.000000     0.000000     0.000000     0.000000
   10    -1.000000   180.000000     0.000000     1.000000     0.000000     0.000000     0.000000     0.000000
   11     1.000000   180.000000     0.707107     0.707107     0.000000     0.000000     0.000000     0.000000
   12    -1.000000   180.000000     0.707107     0.707107     0.000000     0.000000     0.000000     0.000000
   13     1.000000   180.000000     1.000000     0.000000     0.000000     0.000000     0.000000     0.000000
   14    -1.000000   180.000000     1.000000     0.000000     0.000000     0.000000     0.000000     0.000000
   15     1.000000   180.000000     0.707107    -0.707107     0.000000     0.000000     0.000000     0.000000
   16    -1.000000   180.000000     0.707107    -0.707107     0.000000     0.000000     0.000000     0.000000
 
 Subroutine IBZKPT returns following result:
 ===========================================
 
 Found     40 irreducible k-points:
 
 Following reciprocal coordinates:
            Coordinates               Weight
  0.062500  0.062500  0.062500      8.000000
  0.187500  0.062500  0.062500     16.000000
  0.312500  0.062500  0.062500     16.000000
  0.437500  0.062500  0.062500     16.000000
  0.187500  0.187500  0.062500      8.000000
  0.312500  0.187500  0.062500     16.000000
  0.437500  0.187500  0.062500     16.000000
  0.312500  0.312500  0.062500      8.000000
  0.437500  0.312500  0.062500     16.000000
  0.437500  0.437500  0.062500      8.000000
  0.062500  0.062500  0.187500      8.000000
  0.187500  0.062500  0.187500     16.000000
  0.312500  0.062500  0.187500     16.000000
  0.437500  0.062500  0.187500     16.000000
  0.187500  0.187500  0.187500      8.000000
  0.312500  0.187500  0.187500     16.000000
  0.437500  0.187500  0.187500     16.000000
  0.312500  0.312500  0.187500      8.000000
  0.437500  0.312500  0.187500     16.000000
  0.437500  0.437500  0.187500      8.000000
  0.062500  0.062500  0.312500      8.000000
  0.187500  0.062500  0.312500     16.000000
  0.312500  0.062500  0.312500     16.000000
  0.437500  0.062500  0.312500     16.000000
  0.187500  0.187500  0.312500      8.000000
  0.312500  0.187500  0.312500     16.000000
  0.437500  0.187500  0.312500     16.000000
  0.312500  0.312500  0.312500      8.000000
  0.437500  0.312500  0.312500     16.000000
  0.437500  0.437500  0.312500      8.000000
  0.062500  0.062500  0.437500      8.000000
  0.187500  0.062500  0.437500     16.000000
  0.312500  0.062500  0.437500     16.000000
  0.437500  0.062500  0.437500     16.000000
  0.187500  0.187500  0.437500      8.000000
  0.312500  0.187500  0.437500     16.000000
  0.437500  0.187500  0.437500     16.000000
  0.312500  0.312500  0.437500      8.000000
  0.437500  0.312500  0.437500     16.000000
  0.437500  0.437500  0.437500      8.000000
 
 Following cartesian coordinates:
            Coordinates               Weight
  0.062611  0.062611  0.062625      8.000000
  0.187833  0.062611  0.062625     16.000000
  0.313054  0.062611  0.062625     16.000000
  0.438276  0.062611  0.062625     16.000000
  0.187833  0.187833  0.062625      8.000000
  0.313054  0.187833  0.062625     16.000000
  0.438276  0.187833  0.062625     16.000000
  0.313054  0.313054  0.062625      8.000000
  0.438276  0.313054  0.062625     16.000000
  0.438276  0.438276  0.062625      8.000000
  0.062611  0.062611  0.187875      8.000000
  0.187833  0.062611  0.187875     16.000000
  0.313054  0.062611  0.187875     16.000000
  0.438276  0.062611  0.187875     16.000000
  0.187833  0.187833  0.187875      8.000000
  0.313054  0.187833  0.187875     16.000000
  0.438276  0.187833  0.187875     16.000000
  0.313054  0.313054  0.187875      8.000000
  0.438276  0.313054  0.187875     16.000000
  0.438276  0.438276  0.187875      8.000000
  0.062611  0.062611  0.313126      8.000000
  0.187833  0.062611  0.313126     16.000000
  0.313054  0.062611  0.313126     16.000000
  0.438276  0.062611  0.313126     16.000000
  0.187833  0.187833  0.313126      8.000000
  0.313054  0.187833  0.313126     16.000000
  0.438276  0.187833  0.313126     16.000000
  0.313054  0.313054  0.313126      8.000000
  0.438276  0.313054  0.313126     16.000000
  0.438276  0.438276  0.313126      8.000000
  0.062611  0.062611  0.438376      8.000000
  0.187833  0.062611  0.438376     16.000000
  0.313054  0.062611  0.438376     16.000000
  0.438276  0.062611  0.438376     16.000000
  0.187833  0.187833  0.438376      8.000000
  0.313054  0.187833  0.438376     16.000000
  0.438276  0.187833  0.438376     16.000000
  0.313054  0.313054  0.438376      8.000000
  0.438276  0.313054  0.438376     16.000000
  0.438276  0.438276  0.438376      8.000000
 


--------------------------------------------------------------------------------------------------------




 Dimension of arrays:
   k-points           NKPTS =     40   k-points in BZ     NKDIM =     40   number of bands    NBANDS=    128
   number of dos      NEDOS =   1500   number of ions     NIONS =     16
   non local maximal  LDIM  =      6   non local SUM 2l+1 LMDIM =     18
   total plane-waves  NPLWV = 110592
   max r-space proj   IRMAX =   9662   max aug-charges    IRDMAX= 453364
   dimension x,y,z NGX =    48 NGY =   48 NGZ =   48
   dimension x,y,z NGXF=    96 NGYF=   96 NGZF=   96
   support grid    NGXF=   192 NGYF=  192 NGZF=  192
   ions per type =               8   4   4
   NGX,Y,Z   is equivalent  to a cutoff of  13.21, 13.21, 13.22 a.u.
   NGXF,Y,Z  is equivalent  to a cutoff of  26.43, 26.43, 26.43 a.u.

 SYSTEM =  NiCoMnGa                                
 POSCAR =  Heusler tetragonGa                      

 Startparameter for this run:
   NWRITE =      2    write-flag & timer
   PREC   = accura    normal or accurate (medium, high low for compatibility)
   ISTART =      0    job   : 0-new  1-cont  2-samecut
   ICHARG =      2    charge: 1-file 2-atom 10-const
   ISPIN  =      2    spin polarized calculation?
   LNONCOLLINEAR =      F non collinear calculations
   LSORBIT =      F    spin-orbit coupling
   INIWAV =      1    electr: 0-lowe 1-rand  2-diag
   LASPH  =      F    aspherical Exc in radial PAW
   METAGGA=      F    non-selfconsistent MetaGGA calc.

 Electronic Relaxation 1
   ENCUT  =  500.0 eV  36.75 Ry    6.06 a.u.  11.01 11.01 11.01*2*pi/ulx,y,z
   ENINI  =  500.0     initial cutoff
   ENAUG  =  578.3 eV  augmentation charge cutoff
   NELM   =    160;   NELMIN=  2; NELMDL= -6     # of ELM steps 
   EDIFF  = 0.1E-05   stopping-criterion for ELM
   LREAL  =      T    real-space projection
   NLSPLINE    = F    spline interpolate recip. space projectors
   LCOMPAT=      F    compatible to vasp.4.4
   GGA_COMPAT  = T    GGA compatible to vasp.4.4-vasp.4.6
   LMAXPAW     = -100 max onsite density
   LMAXMIX     =    6 max onsite mixed and CHGCAR
   VOSKOWN=      0    Vosko Wilk Nusair interpolation
   ROPT   =   -0.00025  -0.00025  -0.00025
 Ionic relaxation
   EDIFFG = -.1E-02   stopping-criterion for IOM
   NSW    =      0    number of steps for IOM
   NBLOCK =      1;   KBLOCK =      1    inner block; outer block 
   IBRION =     -1    ionic relax: 0-MD 1-quasi-New 2-CG
   NFREE  =      1    steps in history (QN), initial steepest desc. (CG)
   ISIF   =      3    stress and relaxation
   IWAVPR =     10    prediction:  0-non 1-charg 2-wave 3-comb
   ISYM   =      2    0-nonsym 1-usesym 2-fastsym
   LCORR  =      T    Harris-Foulkes like correction to forces

   POTIM  = 0.0100    time-step for ionic-motion
   TEIN   =    0.0    initial temperature
   TEBEG  =    0.0;   TEEND  =   0.0 temperature during run
   SMASS  =  -3.00    Nose mass-parameter (am)
   estimated Nose-frequenzy (Omega)   =  0.10E-29 period in steps = 0.63E+48 mass=  -0.834E-27a.u.
   SCALEE = 1.0000    scale energy and forces
   NPACO  =    256;   APACO  = 16.0  distance and # of slots for P.C.
   PSTRESS=    0.0 pullay stress

  Mass of Ions in am
   POMASS =  55.85 58.93114.82
  Ionic Valenz
   ZVAL   =  14.00 15.00  3.00
  Atomic Wigner-Seitz radii
   RWIGS  =   1.16  1.16  1.16
  virtual crystal weights 
   VCA    =   1.00  1.00  1.00
   NELECT =     184.0000    total number of electrons
   NUPDOWN=      -1.0000    fix difference up-down

 DOS related values:
   EMIN   =  10.00;   EMAX   =-10.00  energy-range for DOS
   EFERMI =   0.00
   ISMEAR =     1;   SIGMA  =   0.10  broadening in eV -4-tet -1-fermi 0-gaus

 Electronic relaxation 2 (details)
   IALGO  =     38    algorithm
   LDIAG  =      T    sub-space diagonalisation (order eigenvalues)
   LSUBROT=      F    optimize rotation matrix (better conditioning)
   TURBO    =      0    0=normal 1=particle mesh
   IRESTART =      0    0=no restart 2=restart with 2 vectors
   NREBOOT  =      0    no. of reboots
   NMIN     =      0    reboot dimension
   EREF     =   0.00    reference energy to select bands
   IMIX   =      4    mixing-type and parameters
     AMIX     =   0.18;   BMIX     =  0.00
     AMIX_MAG =   0.26;   BMIX_MAG =  0.01
     AMIN     =   0.10
     WC   =   100.;   INIMIX=   1;  MIXPRE=   1;  MAXMIX= -45

 Intra band minimization:
   WEIMIN = 0.0000     energy-eigenvalue tresh-hold
   EBREAK =  0.20E-08  absolut break condition
   DEPER  =   0.30     relativ break condition  

   TIME   =   0.40     timestep for ELM

  volume/ion in A,a.u.               =      13.76        92.88
  Fermi-wavevector in a.u.,A,eV,Ry     =   1.541918  2.913802 32.347992  2.377510
  Thomas-Fermi vector in A             =   2.647796
 
 Write flags
   LWAVE        =      F    write WAVECAR
   LDOWNSAMPLE  =      F    k-point downsampling of WAVECAR
   LCHARG       =      T    write CHGCAR
   LVTOT        =      F    write LOCPOT, total local potential
   LVHAR        =      F    write LOCPOT, Hartree potential only
   LELF         =      F    write electronic localiz. function (ELF)
   LORBIT       =     10    0 simple, 1 ext, 2 COOP (PROOUT), +10 PAW based schemes


 Dipole corrections
   LMONO  =      F    monopole corrections only (constant potential shift)
   LDIPOL =      F    correct potential (dipole corrections)
   IDIPOL =      0    1-x, 2-y, 3-z, 4-all directions 
   EPSILON=  1.0000000 bulk dielectric constant

 Exchange correlation treatment:
   GGA     =    --    GGA type
   LEXCH   =     8    internal setting for exchange type
   VOSKOWN=      0    Vosko Wilk Nusair interpolation
   LHFCALC =     F    Hartree Fock is set to
   LHFONE  =     F    Hartree Fock one center treatment
   AEXX    =    0.0000 exact exchange contribution

 Linear response parameters
   LEPSILON=     F    determine dielectric tensor
   LRPA    =     F    only Hartree local field effects (RPA)
   LNABLA  =     F    use nabla operator in PAW spheres
   LVEL    =     F    velocity operator in full k-point grid
   LINTERFAST=   F  fast interpolation
   KINTER  =     0    interpolate to denser k-point grid
   CSHIFT  =0.1000    complex shift for real part using Kramers Kronig
   OMEGAMAX=  -1.0    maximum frequency
   DEG_THRESHOLD= 0.2000000E-02 threshold for treating states as degnerate
   RTIME   =   -0.100 relaxation time in fs
  (WPLASMAI=    0.000 imaginary part of plasma frequency in eV, 0.658/RTIME)
   DFIELD  = 0.0000000 0.0000000 0.0000000 field for delta impulse in time
 
 Orbital magnetization related:
   ORBITALMAG=     F  switch on orbital magnetization
   LCHIMAG   =     F  perturbation theory with respect to B field
   DQ        =  0.001000  dq finite difference perturbation B field
   LLRAUG    =     F  two centre corrections for induced B field



--------------------------------------------------------------------------------------------------------


 Static calculation
 charge density and potential will be updated during run
 spin polarized calculation
 Variant of blocked Davidson
 Davidson routine will perform the subspace rotation
 perform sub-space diagonalisation
    after iterative eigenvector-optimisation
 modified Broyden-mixing scheme, WC =      100.0
 initial mixing is a Kerker type mixing with AMIX =  0.1800 and BMIX =      0.0025
 Hartree-type preconditioning will be used
 using additional bands           36
 real space projection scheme for non local part
 use partial core corrections
 calculate Harris-corrections to forces 
   (improved forces if not selfconsistent)
 use gradient corrections 
 use of overlap-Matrix (Vanderbilt PP)
 Methfessel and Paxton  Order N= 1 SIGMA  =   0.10


--------------------------------------------------------------------------------------------------------


  energy-cutoff  :      500.00
  volume of cell :      220.22
      direct lattice vectors                 reciprocal lattice vectors
     6.039289815  0.000000000  0.000000000     0.165582383  0.000000000  0.000000000
     0.000000000  6.039289815  0.000000000     0.000000000  0.165582383  0.000000000
     0.000000000  0.000000000  6.037914393     0.000000000  0.000000000  0.165620102

  length of vectors
     6.039289815  6.039289815  6.037914393     0.165582383  0.165582383  0.165620102


 
 k-points in units of 2pi/SCALE and weight: Ni7CoMn5CrSn2                           
   0.06261084  0.06261084  0.06262510       0.016
   0.18783252  0.06261084  0.06262510       0.031
   0.31305419  0.06261084  0.06262510       0.031
   0.43827587  0.06261084  0.06262510       0.031
   0.18783252  0.18783252  0.06262510       0.016
   0.31305419  0.18783252  0.06262510       0.031
   0.43827587  0.18783252  0.06262510       0.031
   0.31305419  0.31305419  0.06262510       0.016
   0.43827587  0.31305419  0.06262510       0.031
   0.43827587  0.43827587  0.06262510       0.016
   0.06261084  0.06261084  0.18787530       0.016
   0.18783252  0.06261084  0.18787530       0.031
   0.31305419  0.06261084  0.18787530       0.031
   0.43827587  0.06261084  0.18787530       0.031
   0.18783252  0.18783252  0.18787530       0.016
   0.31305419  0.18783252  0.18787530       0.031
   0.43827587  0.18783252  0.18787530       0.031
   0.31305419  0.31305419  0.18787530       0.016
   0.43827587  0.31305419  0.18787530       0.031
   0.43827587  0.43827587  0.18787530       0.016
   0.06261084  0.06261084  0.31312551       0.016
   0.18783252  0.06261084  0.31312551       0.031
   0.31305419  0.06261084  0.31312551       0.031
   0.43827587  0.06261084  0.31312551       0.031
   0.18783252  0.18783252  0.31312551       0.016
   0.31305419  0.18783252  0.31312551       0.031
   0.43827587  0.18783252  0.31312551       0.031
   0.31305419  0.31305419  0.31312551       0.016
   0.43827587  0.31305419  0.31312551       0.031
   0.43827587  0.43827587  0.31312551       0.016
   0.06261084  0.06261084  0.43837571       0.016
   0.18783252  0.06261084  0.43837571       0.031
   0.31305419  0.06261084  0.43837571       0.031
   0.43827587  0.06261084  0.43837571       0.031
   0.18783252  0.18783252  0.43837571       0.016
   0.31305419  0.18783252  0.43837571       0.031
   0.43827587  0.18783252  0.43837571       0.031
   0.31305419  0.31305419  0.43837571       0.016
   0.43827587  0.31305419  0.43837571       0.031
   0.43827587  0.43827587  0.43837571       0.016
 
 k-points in reciprocal lattice and weights: Ni7CoMn5CrSn2                           
   0.06250000  0.06250000  0.06250000       0.016
   0.18750000  0.06250000  0.06250000       0.031
   0.31250000  0.06250000  0.06250000       0.031
   0.43750000  0.06250000  0.06250000       0.031
   0.18750000  0.18750000  0.06250000       0.016
   0.31250000  0.18750000  0.06250000       0.031
   0.43750000  0.18750000  0.06250000       0.031
   0.31250000  0.31250000  0.06250000       0.016
   0.43750000  0.31250000  0.06250000       0.031
   0.43750000  0.43750000  0.06250000       0.016
   0.06250000  0.06250000  0.18750000       0.016
   0.18750000  0.06250000  0.18750000       0.031
   0.31250000  0.06250000  0.18750000       0.031
   0.43750000  0.06250000  0.18750000       0.031
   0.18750000  0.18750000  0.18750000       0.016
   0.31250000  0.18750000  0.18750000       0.031
   0.43750000  0.18750000  0.18750000       0.031
   0.31250000  0.31250000  0.18750000       0.016
   0.43750000  0.31250000  0.18750000       0.031
   0.43750000  0.43750000  0.18750000       0.016
   0.06250000  0.06250000  0.31250000       0.016
   0.18750000  0.06250000  0.31250000       0.031
   0.31250000  0.06250000  0.31250000       0.031
   0.43750000  0.06250000  0.31250000       0.031
   0.18750000  0.18750000  0.31250000       0.016
   0.31250000  0.18750000  0.31250000       0.031
   0.43750000  0.18750000  0.31250000       0.031
   0.31250000  0.31250000  0.31250000       0.016
   0.43750000  0.31250000  0.31250000       0.031
   0.43750000  0.43750000  0.31250000       0.016
   0.06250000  0.06250000  0.43750000       0.016
   0.18750000  0.06250000  0.43750000       0.031
   0.31250000  0.06250000  0.43750000       0.031
   0.43750000  0.06250000  0.43750000       0.031
   0.18750000  0.18750000  0.43750000       0.016
   0.31250000  0.18750000  0.43750000       0.031
   0.43750000  0.18750000  0.43750000       0.031
   0.31250000  0.31250000  0.43750000       0.016
   0.43750000  0.31250000  0.43750000       0.031
   0.43750000  0.43750000  0.43750000       0.016
 
 position of ions in fractional coordinates (direct lattice) 
   0.25000000  0.25000000  0.25000000
   0.25000000  0.75000000  0.25000000
   0.75000000  0.25000000  0.25000000
   0.75000000  0.75000000  0.25000000
   0.25000000  0.25000000  0.75000000
   0.75000000  0.25000000  0.75000000
   0.25000000  0.75000000  0.75000000
   0.75000000  0.75000000  0.75000000
   0.50000000  0.00000000  0.00000000
   0.00000000  0.50000000  0.00000000
   0.00000000  0.00000000  0.50000000
   0.50000000  0.50000000  0.50000000
   0.50000000  0.00000000  0.50000000
   0.00000000  0.50000000  0.50000000
   0.50000000  0.50000000  0.00000000
   0.00000000  0.00000000  0.00000000
 
 position of ions in cartesian coordinates  (Angst):
   1.50982245  1.50982245  1.50947860
   1.50982245  4.52946736  1.50947860
   4.52946736  1.50982245  1.50947860
   4.52946736  4.52946736  1.50947860
   1.50982245  1.50982245  4.52843580
   4.52946736  1.50982245  4.52843580
   1.50982245  4.52946736  4.52843580
   4.52946736  4.52946736  4.52843580
   3.01964491  0.00000000  0.00000000
   0.00000000  3.01964491  0.00000000
   0.00000000  0.00000000  3.01895720
   3.01964491  3.01964491  3.01895720
   3.01964491  0.00000000  3.01895720
   0.00000000  3.01964491  3.01895720
   3.01964491  3.01964491  0.00000000
   0.00000000  0.00000000  0.00000000
 


--------------------------------------------------------------------------------------------------------


 k-point   1 :   0.0625 0.0625 0.0625  plane waves:    5575
 k-point   2 :   0.1875 0.0625 0.0625  plane waves:    5590
 k-point   3 :   0.3125 0.0625 0.0625  plane waves:    5592
 k-point   4 :   0.4375 0.0625 0.0625  plane waves:    5585
 k-point   5 :   0.1875 0.1875 0.0625  plane waves:    5586
 k-point   6 :   0.3125 0.1875 0.0625  plane waves:    5579
 k-point   7 :   0.4375 0.1875 0.0625  plane waves:    5585
 k-point   8 :   0.3125 0.3125 0.0625  plane waves:    5574
 k-point   9 :   0.4375 0.3125 0.0625  plane waves:    5585
 k-point  10 :   0.4375 0.4375 0.0625  plane waves:    5577
 k-point  11 :   0.0625 0.0625 0.1875  plane waves:    5590
 k-point  12 :   0.1875 0.0625 0.1875  plane waves:    5587
 k-point  13 :   0.3125 0.0625 0.1875  plane waves:    5579
 k-point  14 :   0.4375 0.0625 0.1875  plane waves:    5587
 k-point  15 :   0.1875 0.1875 0.1875  plane waves:    5565
 k-point  16 :   0.3125 0.1875 0.1875  plane waves:    5592
 k-point  17 :   0.4375 0.1875 0.1875  plane waves:    5600
 k-point  18 :   0.3125 0.3125 0.1875  plane waves:    5596
 k-point  19 :   0.4375 0.3125 0.1875  plane waves:    5607
 k-point  20 :   0.4375 0.4375 0.1875  plane waves:    5596
 k-point  21 :   0.0625 0.0625 0.3125  plane waves:    5593
 k-point  22 :   0.1875 0.0625 0.3125  plane waves:    5579
 k-point  23 :   0.3125 0.0625 0.3125  plane waves:    5576
 k-point  24 :   0.4375 0.0625 0.3125  plane waves:    5585
 k-point  25 :   0.1875 0.1875 0.3125  plane waves:    5592
 k-point  26 :   0.3125 0.1875 0.3125  plane waves:    5596
 k-point  27 :   0.4375 0.1875 0.3125  plane waves:    5606
 k-point  28 :   0.3125 0.3125 0.3125  plane waves:    5611
 k-point  29 :   0.4375 0.3125 0.3125  plane waves:    5609
 k-point  30 :   0.4375 0.4375 0.3125  plane waves:    5621
 k-point  31 :   0.0625 0.0625 0.4375  plane waves:    5586
 k-point  32 :   0.1875 0.0625 0.4375  plane waves:    5590
 k-point  33 :   0.3125 0.0625 0.4375  plane waves:    5585
 k-point  34 :   0.4375 0.0625 0.4375  plane waves:    5577
 k-point  35 :   0.1875 0.1875 0.4375  plane waves:    5600
 k-point  36 :   0.3125 0.1875 0.4375  plane waves:    5606
 k-point  37 :   0.4375 0.1875 0.4375  plane waves:    5596
 k-point  38 :   0.3125 0.3125 0.4375  plane waves:    5609
 k-point  39 :   0.4375 0.3125 0.4375  plane waves:    5622
 k-point  40 :   0.4375 0.4375 0.4375  plane waves:    5619

 maximum and minimum number of plane-waves per node :       589      541

 maximum number of plane-waves:      5622
 maximum index in each direction: 
   IXMAX=   10   IYMAX=   10   IZMAX=   10
   IXMIN=  -11   IYMIN=  -11   IZMIN=  -11


 real space projection operators:
  total allocation   :      14953.78 KBytes
  max/ min on nodes  :       1554.11       1325.00


 parallel 3D FFT for wavefunctions:
    minimum data exchange during FFTs selected (reduces bandwidth)
 parallel 3D FFT for charge:
    minimum data exchange during FFTs selected (reduces bandwidth)


 total amount of memory used by VASP MPI-rank0    55073. kBytes
=======================================================================

   base      :      30000. kBytes
   nonlr-proj:       4531. kBytes
   fftplans  :       4343. kBytes
   grid      :       3686. kBytes
   one-center:         62. kBytes
   wavefun   :      12451. kBytes
 
     INWAV:  cpu time    0.0000: real time    0.0000
 Broyden mixing: mesh for mixing (old mesh)
   NGX = 23   NGY = 23   NGZ = 23
  (NGX  = 96   NGY  = 96   NGZ  = 96)
  gives a total of  12167 points

 initial charge density was supplied:
 charge density of overlapping atoms calculated
 number of electron     184.0000000 magnetization      23.2000000
 keeping initial charge density in first step


--------------------------------------------------------------------------------------------------------


 Maximum index for non-local projection operator         1107
 Maximum index for augmentation-charges        10774 (set IRDMAX)


--------------------------------------------------------------------------------------------------------


 First call to EWALD:  gamma=   0.294
 Maximum number of real-space cells 3x 3x 3
 Maximum number of reciprocal cells 3x 3x 3

    FEWALD:  cpu time    0.0000: real time    0.0015


--------------------------------------- Iteration      1(   1)  ---------------------------------------


    POTLOK:  cpu time    0.1480: real time    0.1816
    SETDIJ:  cpu time    0.3520: real time    0.3531
     EDDAV:  cpu time   12.0368: real time   12.0785
       DOS:  cpu time    0.0080: real time    0.0069
    --------------------------------------------
      LOOP:  cpu time   12.5448: real time   12.6200

 eigenvalue-minimisations  : 20792
 total energy-change (2. order) : 0.2532020E+04  (-0.9228711E+04)
 number of electron     184.0000000 magnetization      23.2000000
 augmentation part      184.0000000 magnetization      23.2000000

 Free energy of the ion-electron system (eV)
  ---------------------------------------------------
  alpha Z        PSCENC =       946.92237328
  Ewald energy   TEWEN  =    -20047.84261850
  -Hartree energ DENC   =     -9785.78643937
  -exchange      EXHF   =         0.00000000
  -V(xc)+E(xc)   XCENC  =       712.96424742
  PAW double counting   =     25759.85178810   -27033.53014219
  entropy T*S    EENTRO =        -0.00010985
  eigenvalues    EBANDS =       312.43205053
  atomic energy  EATOM  =     31667.00873210
  Solvation  Ediel_sol  =         0.00000000
  ---------------------------------------------------
  free energy    TOTEN  =      2532.01988152 eV

  energy without entropy =     2532.01999137  energy(sigma->0) =     2532.01991814


--------------------------------------------------------------------------------------------------------




--------------------------------------- Iteration      1(   2)  ---------------------------------------


     EDDAV:  cpu time   11.7967: real time   11.8345
       DOS:  cpu time    0.0040: real time    0.0073
    --------------------------------------------
      LOOP:  cpu time   11.8007: real time   11.8418

 eigenvalue-minimisations  : 20480
 total energy-change (2. order) :-0.2315058E+04  (-0.2220624E+04)
 number of electron     184.0000000 magnetization      23.2000000
 augmentation part      184.0000000 magnetization      23.2000000

 Free energy of the ion-electron system (eV)
  ---------------------------------------------------
  alpha Z        PSCENC =       946.92237328
  Ewald energy   TEWEN  =    -20047.84261850
  -Hartree energ DENC   =     -9785.78643937
  -exchange      EXHF   =         0.00000000
  -V(xc)+E(xc)   XCENC  =       712.96424742
  PAW double counting   =     25759.85178810   -27033.53014219
  entropy T*S    EENTRO =         0.00121442
  eigenvalues    EBANDS =     -2002.62706597
  atomic energy  EATOM  =     31667.00873210
  Solvation  Ediel_sol  =         0.00000000
  ---------------------------------------------------
  free energy    TOTEN  =       216.96208929 eV

  energy without entropy =      216.96087487  energy(sigma->0) =      216.96168448


--------------------------------------------------------------------------------------------------------




--------------------------------------- Iteration      1(   3)  ---------------------------------------


     EDDAV:  cpu time   12.0888: real time   12.1292
       DOS:  cpu time    0.0080: real time    0.0079
    --------------------------------------------
      LOOP:  cpu time   12.0968: real time   12.1371

 eigenvalue-minimisations  : 21072
 total energy-change (2. order) :-0.3104338E+03  (-0.2698700E+03)
 number of electron     184.0000000 magnetization      23.2000000
 augmentation part      184.0000000 magnetization      23.2000000

 Free energy of the ion-electron system (eV)
  ---------------------------------------------------
  alpha Z        PSCENC =       946.92237328
  Ewald energy   TEWEN  =    -20047.84261850
  -Hartree energ DENC   =     -9785.78643937
  -exchange      EXHF   =         0.00000000
  -V(xc)+E(xc)   XCENC  =       712.96424742
  PAW double counting   =     25759.85178810   -27033.53014219
  entropy T*S    EENTRO =        -0.00846160
  eigenvalues    EBANDS =     -2313.05119158
  atomic energy  EATOM  =     31667.00873210
  Solvation  Ediel_sol  =         0.00000000
  ---------------------------------------------------
  free energy    TOTEN  =       -93.47171234 eV

  energy without entropy =      -93.46325074  energy(sigma->0) =      -93.46889180


--------------------------------------------------------------------------------------------------------




--------------------------------------- Iteration      1(   4)  ---------------------------------------


     EDDAV:  cpu time   12.5488: real time   12.5891
       DOS:  cpu time    0.0080: real time    0.0082
    --------------------------------------------
      LOOP:  cpu time   12.5568: real time   12.5972

 eigenvalue-minimisations  : 22304
 total energy-change (2. order) :-0.1914706E+02  (-0.1873935E+02)
 number of electron     184.0000000 magnetization      23.2000000
 augmentation part      184.0000000 magnetization      23.2000000

 Free energy of the ion-electron system (eV)
  ---------------------------------------------------
  alpha Z        PSCENC =       946.92237328
  Ewald energy   TEWEN  =    -20047.84261850
  -Hartree energ DENC   =     -9785.78643937
  -exchange      EXHF   =         0.00000000
  -V(xc)+E(xc)   XCENC  =       712.96424742
  PAW double counting   =     25759.85178810   -27033.53014219
  entropy T*S    EENTRO =        -0.01202752
  eigenvalues    EBANDS =     -2332.19468962
  atomic energy  EATOM  =     31667.00873210
  Solvation  Ediel_sol  =         0.00000000
  ---------------------------------------------------
  free energy    TOTEN  =      -112.61877629 eV

  energy without entropy =     -112.60674878  energy(sigma->0) =     -112.61476712


--------------------------------------------------------------------------------------------------------




--------------------------------------- Iteration      1(   5)  ---------------------------------------


     EDDAV:  cpu time   12.6968: real time   12.7367
       DOS:  cpu time    0.0040: real time    0.0075
    --------------------------------------------
      LOOP:  cpu time   12.7008: real time   12.7442

 eigenvalue-minimisations  : 22656
 total energy-change (2. order) :-0.3805794E+00  (-0.3801455E+00)
 number of electron     184.0000000 magnetization      23.2000000
 augmentation part      184.0000000 magnetization      23.2000000

 Free energy of the ion-electron system (eV)
  ---------------------------------------------------
  alpha Z        PSCENC =       946.92237328
  Ewald energy   TEWEN  =    -20047.84261850
  -Hartree energ DENC   =     -9785.78643937
  -exchange      EXHF   =         0.00000000
  -V(xc)+E(xc)   XCENC  =       712.96424742
  PAW double counting   =     25759.85178810   -27033.53014219
  entropy T*S    EENTRO =        -0.01213675
  eigenvalues    EBANDS =     -2332.57515975
  atomic energy  EATOM  =     31667.00873210
  Solvation  Ediel_sol  =         0.00000000
  ---------------------------------------------------
  free energy    TOTEN  =      -112.99935566 eV

  energy without entropy =     -112.98721891  energy(sigma->0) =     -112.99531008


--------------------------------------------------------------------------------------------------------




--------------------------------------- Iteration      1(   6)  ---------------------------------------


     EDDAV:  cpu time   12.4488: real time   12.4876
       DOS:  cpu time    0.0080: real time    0.0078
    CHARGE:  cpu time    0.5600: real time    0.5624
    MIXING:  cpu time    0.0040: real time    0.0041
    --------------------------------------------
      LOOP:  cpu time   13.0208: real time   13.0620

 eigenvalue-minimisations  : 22088
 total energy-change (2. order) :-0.9808144E-02  (-0.9807888E-02)
 number of electron     184.0000012 magnetization      23.5920884
 augmentation part       97.0625745 magnetization      17.0815111

 Broyden mixing:
  rms(total) = 0.37842E+01    rms(broyden)= 0.37838E+01
  rms(prec ) = 0.55780E+01
  weight for this iteration     100.00

 Free energy of the ion-electron system (eV)
  ---------------------------------------------------
  alpha Z        PSCENC =       946.92237328
  Ewald energy   TEWEN  =    -20047.84261850
  -Hartree energ DENC   =     -9785.78643937
  -exchange      EXHF   =         0.00000000
  -V(xc)+E(xc)   XCENC  =       712.96424742
  PAW double counting   =     25759.85178810   -27033.53014219
  entropy T*S    EENTRO =        -0.01213756
  eigenvalues    EBANDS =     -2332.58496708
  atomic energy  EATOM  =     31667.00873210
  Solvation  Ediel_sol  =         0.00000000
  ---------------------------------------------------
  free energy    TOTEN  =      -113.00916380 eV

  energy without entropy =     -112.99702624  energy(sigma->0) =     -113.00511795


--------------------------------------------------------------------------------------------------------




--------------------------------------- Iteration      1(   7)  ---------------------------------------


    POTLOK:  cpu time    0.0760: real time    0.0783
    SETDIJ:  cpu time    0.2760: real time    0.2743
     EDDAV:  cpu time   12.4088: real time   12.4508
       DOS:  cpu time    0.0080: real time    0.0079
    CHARGE:  cpu time    0.5560: real time    0.5603
    MIXING:  cpu time    0.0040: real time    0.0042
    --------------------------------------------
      LOOP:  cpu time   13.3288: real time   13.3759

 eigenvalue-minimisations  : 21920
 total energy-change (2. order) : 0.9837180E+01  (-0.3962147E+01)
 number of electron     184.0000014 magnetization      23.6206908
 augmentation part      104.2284167 magnetization      17.3666621

 Broyden mixing:
  rms(total) = 0.32520E+01    rms(broyden)= 0.32515E+01
  rms(prec ) = 0.52834E+01
  weight for this iteration     100.00

 eigenvalues of (default mixing * dielectric matrix)
  average eigenvalue GAMMA=   0.5754
  0.5754

 Free energy of the ion-electron system (eV)
  ---------------------------------------------------
  alpha Z        PSCENC =       946.92237328
  Ewald energy   TEWEN  =    -20047.84261850
  -Hartree energ DENC   =     -9491.94683699
  -exchange      EXHF   =         0.00000000
  -V(xc)+E(xc)   XCENC  =       701.81560701
  PAW double counting   =     25906.75534847   -27150.63509708
  entropy T*S    EENTRO =        -0.01498356
  eigenvalues    EBANDS =     -2635.23450836
  atomic energy  EATOM  =     31667.00873210
  Solvation  Ediel_sol  =         0.00000000
  ---------------------------------------------------
  free energy    TOTEN  =      -103.17198364 eV

  energy without entropy =     -103.15700008  energy(sigma->0) =     -103.16698912


--------------------------------------------------------------------------------------------------------




--------------------------------------- Iteration      1(   8)  ---------------------------------------


    POTLOK:  cpu time    0.0800: real time    0.0789
    SETDIJ:  cpu time    0.2720: real time    0.2738
     EDDAV:  cpu time   12.3648: real time   12.4075
       DOS:  cpu time    0.0120: real time    0.0083
    CHARGE:  cpu time    0.5560: real time    0.5600
    MIXING:  cpu time    0.0040: real time    0.0043
    --------------------------------------------
      LOOP:  cpu time   13.2888: real time   13.3327

 eigenvalue-minimisations  : 21776
 total energy-change (2. order) :-0.3871820E+01  (-0.2149337E+01)
 number of electron     184.0000013 magnetization      23.3720691
 augmentation part      103.3733486 magnetization      18.9792336

 Broyden mixing:
  rms(total) = 0.46660E+01    rms(broyden)= 0.46653E+01
  rms(prec ) = 0.79633E+01
  weight for this iteration     100.00

 eigenvalues of (default mixing * dielectric matrix)
  average eigenvalue GAMMA=   0.7274
  1.2465  0.2083

 Free energy of the ion-electron system (eV)
  ---------------------------------------------------
  alpha Z        PSCENC =       946.92237328
  Ewald energy   TEWEN  =    -20047.84261850
  -Hartree energ DENC   =     -9487.88473087
  -exchange      EXHF   =         0.00000000
  -V(xc)+E(xc)   XCENC  =       701.67160030
  PAW double counting   =     26147.20813422   -27400.35696939
  entropy T*S    EENTRO =         0.00332785
  eigenvalues    EBANDS =     -2633.77365244
  atomic energy  EATOM  =     31667.00873210
  Solvation  Ediel_sol  =         0.00000000
  ---------------------------------------------------
  free energy    TOTEN  =      -107.04380343 eV

  energy without entropy =     -107.04713129  energy(sigma->0) =     -107.04491272


--------------------------------------------------------------------------------------------------------




--------------------------------------- Iteration      1(   9)  ---------------------------------------


    POTLOK:  cpu time    0.0760: real time    0.0776
    SETDIJ:  cpu time    0.2720: real time    0.2732
     EDDAV:  cpu time   12.4528: real time   12.4909
       DOS:  cpu time    0.0080: real time    0.0080
    CHARGE:  cpu time    0.5600: real time    0.5623
    MIXING:  cpu time    0.0040: real time    0.0045
    --------------------------------------------
      LOOP:  cpu time   13.3728: real time   13.4165

 eigenvalue-minimisations  : 21952
 total energy-change (2. order) : 0.6976779E+01  (-0.3743180E+00)
 number of electron     184.0000013 magnetization      23.6414579
 augmentation part      104.5587838 magnetization      17.9953320

 Broyden mixing:
  rms(total) = 0.14325E+01    rms(broyden)= 0.14322E+01
  rms(prec ) = 0.15099E+01
  weight for this iteration     100.00

 eigenvalues of (default mixing * dielectric matrix)
  average eigenvalue GAMMA=   0.7195
  1.4353  0.5159  0.2072

 Free energy of the ion-electron system (eV)
  ---------------------------------------------------
  alpha Z        PSCENC =       946.92237328
  Ewald energy   TEWEN  =    -20047.84261850
  -Hartree energ DENC   =     -9448.82761463
  -exchange      EXHF   =         0.00000000
  -V(xc)+E(xc)   XCENC  =       700.40832297
  PAW double counting   =     26534.44786341   -27788.72146055
  entropy T*S    EENTRO =        -0.00446081
  eigenvalues    EBANDS =     -2663.45816168
  atomic energy  EATOM  =     31667.00873210
  Solvation  Ediel_sol  =         0.00000000
  ---------------------------------------------------
  free energy    TOTEN  =      -100.06702441 eV

  energy without entropy =     -100.06256360  energy(sigma->0) =     -100.06553747


--------------------------------------------------------------------------------------------------------




--------------------------------------- Iteration      1(  10)  ---------------------------------------


    POTLOK:  cpu time    0.0760: real time    0.0772
    SETDIJ:  cpu time    0.2760: real time    0.2748
     EDDAV:  cpu time   12.3248: real time   12.3685
       DOS:  cpu time    0.0080: real time    0.0080
    CHARGE:  cpu time    0.5600: real time    0.5616
    MIXING:  cpu time    0.0040: real time    0.0027
    --------------------------------------------
      LOOP:  cpu time   13.2488: real time   13.2928

 eigenvalue-minimisations  : 21720
 total energy-change (2. order) :-0.1356762E+00  (-0.6570453E-01)
 number of electron     184.0000013 magnetization      25.0887506
 augmentation part      104.5410880 magnetization      19.5855625

 Broyden mixing:
  rms(total) = 0.12989E+01    rms(broyden)= 0.12989E+01
  rms(prec ) = 0.13844E+01
  weight for this iteration     100.00

 eigenvalues of (default mixing * dielectric matrix)
  average eigenvalue GAMMA=   1.8031
  4.7674  1.1199  1.1199  0.2054

 Free energy of the ion-electron system (eV)
  ---------------------------------------------------
  alpha Z        PSCENC =       946.92237328
  Ewald energy   TEWEN  =    -20047.84261850
  -Hartree energ DENC   =     -9440.86188894
  -exchange      EXHF   =         0.00000000
  -V(xc)+E(xc)   XCENC  =       700.44644542
  PAW double counting   =     26901.35003715   -28161.30208442
  entropy T*S    EENTRO =        -0.00395105
  eigenvalues    EBANDS =     -2665.91974568
  atomic energy  EATOM  =     31667.00873210
  Solvation  Ediel_sol  =         0.00000000
  ---------------------------------------------------
  free energy    TOTEN  =      -100.20270064 eV

  energy without entropy =     -100.19874959  energy(sigma->0) =     -100.20138362


--------------------------------------------------------------------------------------------------------




--------------------------------------- Iteration      1(  11)  ---------------------------------------


    POTLOK:  cpu time    0.0760: real time    0.0773
    SETDIJ:  cpu time    0.2720: real time    0.2744
     EDDAV:  cpu time   12.7208: real time   12.7619
       DOS:  cpu time    0.0080: real time    0.0082
    CHARGE:  cpu time    0.5640: real time    0.5641
    MIXING:  cpu time    0.0040: real time    0.0045
    --------------------------------------------
      LOOP:  cpu time   13.6449: real time   13.6903

 eigenvalue-minimisations  : 22680
 total energy-change (2. order) :-0.1848750E+00  (-0.8347375E-01)
 number of electron     184.0000013 magnetization      25.2701164
 augmentation part      104.3955158 magnetization      20.0367849

 Broyden mixing:
  rms(total) = 0.36204E+00    rms(broyden)= 0.36191E+00
  rms(prec ) = 0.41867E+00
  weight for this iteration     100.00

 eigenvalues of (default mixing * dielectric matrix)
  average eigenvalue GAMMA=   1.6342
  4.2081  0.2054  1.5275  1.3434  0.8866

 Free energy of the ion-electron system (eV)
  ---------------------------------------------------
  alpha Z        PSCENC =       946.92237328
  Ewald energy   TEWEN  =    -20047.84261850
  -Hartree energ DENC   =     -9413.52233810
  -exchange      EXHF   =         0.00000000
  -V(xc)+E(xc)   XCENC  =       701.17550568
  PAW double counting   =     28644.33256639   -29928.39264093
  entropy T*S    EENTRO =        -0.00445220
  eigenvalues    EBANDS =     -2670.06470341
  atomic energy  EATOM  =     31667.00873210
  Solvation  Ediel_sol  =         0.00000000
  ---------------------------------------------------
  free energy    TOTEN  =      -100.38757568 eV

  energy without entropy =     -100.38312348  energy(sigma->0) =     -100.38609162


--------------------------------------------------------------------------------------------------------




--------------------------------------- Iteration      1(  12)  ---------------------------------------


    POTLOK:  cpu time    0.0760: real time    0.0780
    SETDIJ:  cpu time    0.2760: real time    0.2774
     EDDAV:  cpu time   12.6248: real time   12.6659
       DOS:  cpu time    0.0080: real time    0.0077
    CHARGE:  cpu time    0.5640: real time    0.5650
    MIXING:  cpu time    0.0040: real time    0.0041
    --------------------------------------------
      LOOP:  cpu time   13.5528: real time   13.5981

 eigenvalue-minimisations  : 22384
 total energy-change (2. order) :-0.4801512E-02  (-0.7937208E-02)
 number of electron     184.0000013 magnetization      25.6525158
 augmentation part      104.5085623 magnetization      20.4301712

 Broyden mixing:
  rms(total) = 0.25491E+00    rms(broyden)= 0.25491E+00
  rms(prec ) = 0.26184E+00
  weight for this iteration     100.00

 eigenvalues of (default mixing * dielectric matrix)
  average eigenvalue GAMMA=   1.9251
  4.1406  4.1406  0.2054  1.0914  1.0914  0.8812

 Free energy of the ion-electron system (eV)
  ---------------------------------------------------
  alpha Z        PSCENC =       946.92237328
  Ewald energy   TEWEN  =    -20047.84261850
  -Hartree energ DENC   =     -9408.51559394
  -exchange      EXHF   =         0.00000000
  -V(xc)+E(xc)   XCENC  =       701.13583152
  PAW double counting   =     28658.53315422   -29943.50426754
  entropy T*S    EENTRO =        -0.00650225
  eigenvalues    EBANDS =     -2674.12348608
  atomic energy  EATOM  =     31667.00873210
  Solvation  Ediel_sol  =         0.00000000
  ---------------------------------------------------
  free energy    TOTEN  =      -100.39237719 eV

  energy without entropy =     -100.38587494  energy(sigma->0) =     -100.39020978


--------------------------------------------------------------------------------------------------------




--------------------------------------- Iteration      1(  13)  ---------------------------------------


    POTLOK:  cpu time    0.0760: real time    0.0768
    SETDIJ:  cpu time    0.2800: real time    0.2816
     EDDAV:  cpu time   12.5928: real time   12.6334
       DOS:  cpu time    0.0080: real time    0.0079
    CHARGE:  cpu time    0.5600: real time    0.5660
    MIXING:  cpu time    0.0080: real time    0.0045
    --------------------------------------------
      LOOP:  cpu time   13.5248: real time   13.5701

 eigenvalue-minimisations  : 22384
 total energy-change (2. order) :-0.1443657E-01  (-0.3236199E-02)
 number of electron     184.0000013 magnetization      25.9798428
 augmentation part      104.4359951 magnetization      20.7667916

 Broyden mixing:
  rms(total) = 0.12891E+00    rms(broyden)= 0.12890E+00
  rms(prec ) = 0.13599E+00
  weight for this iteration     100.00

 eigenvalues of (default mixing * dielectric matrix)
  average eigenvalue GAMMA=   2.0881
  6.0915  3.9872  0.2054  1.2863  0.8724  1.0869  1.0869

 Free energy of the ion-electron system (eV)
  ---------------------------------------------------
  alpha Z        PSCENC =       946.92237328
  Ewald energy   TEWEN  =    -20047.84261850
  -Hartree energ DENC   =     -9406.04148638
  -exchange      EXHF   =         0.00000000
  -V(xc)+E(xc)   XCENC  =       701.44038552
  PAW double counting   =     28809.61375850   -30099.07770628
  entropy T*S    EENTRO =        -0.00664521
  eigenvalues    EBANDS =     -2672.42360679
  atomic energy  EATOM  =     31667.00873210
  Solvation  Ediel_sol  =         0.00000000
  ---------------------------------------------------
  free energy    TOTEN  =      -100.40681377 eV

  energy without entropy =     -100.40016855  energy(sigma->0) =     -100.40459869


--------------------------------------------------------------------------------------------------------




--------------------------------------- Iteration      1(  14)  ---------------------------------------


    POTLOK:  cpu time    0.0760: real time    0.0774
    SETDIJ:  cpu time    0.2760: real time    0.2786
     EDDAV:  cpu time   12.9368: real time   12.9803
       DOS:  cpu time    0.0080: real time    0.0079
    CHARGE:  cpu time    0.5720: real time    0.5742
    MIXING:  cpu time    0.0040: real time    0.0044
    --------------------------------------------
      LOOP:  cpu time   13.8729: real time   13.9228

 eigenvalue-minimisations  : 23184
 total energy-change (2. order) :-0.5931023E-02  (-0.1140109E-02)
 number of electron     184.0000013 magnetization      26.0793002
 augmentation part      104.4467466 magnetization      20.8775625

 Broyden mixing:
  rms(total) = 0.36474E-01    rms(broyden)= 0.36438E-01
  rms(prec ) = 0.41632E-01
  weight for this iteration     100.00

 eigenvalues of (default mixing * dielectric matrix)
  average eigenvalue GAMMA=   2.2236
  6.5435  3.4414  3.4414  0.2054  1.1775  1.0577  1.0577  0.8638

 Free energy of the ion-electron system (eV)
  ---------------------------------------------------
  alpha Z        PSCENC =       946.92237328
  Ewald energy   TEWEN  =    -20047.84261850
  -Hartree energ DENC   =     -9400.16927363
  -exchange      EXHF   =         0.00000000
  -V(xc)+E(xc)   XCENC  =       701.57406267
  PAW double counting   =     29019.66758799   -30312.73955929
  entropy T*S    EENTRO =        -0.00636753
  eigenvalues    EBANDS =     -2674.82768187
  atomic energy  EATOM  =     31667.00873210
  Solvation  Ediel_sol  =         0.00000000
  ---------------------------------------------------
  free energy    TOTEN  =      -100.41274479 eV

  energy without entropy =     -100.40637726  energy(sigma->0) =     -100.41062228


--------------------------------------------------------------------------------------------------------




--------------------------------------- Iteration      1(  15)  ---------------------------------------


    POTLOK:  cpu time    0.0760: real time    0.0766
    SETDIJ:  cpu time    0.2880: real time    0.2859
     EDDAV:  cpu time   12.1688: real time   12.2127
       DOS:  cpu time    0.0080: real time    0.0080
    CHARGE:  cpu time    0.5680: real time    0.5666
    MIXING:  cpu time    0.0040: real time    0.0036
    --------------------------------------------
      LOOP:  cpu time   13.1128: real time   13.1534

 eigenvalue-minimisations  : 21272
 total energy-change (2. order) :-0.3778474E-03  (-0.2236057E-03)
 number of electron     184.0000013 magnetization      26.1191345
 augmentation part      104.4615624 magnetization      20.9110258

 Broyden mixing:
  rms(total) = 0.30656E-01    rms(broyden)= 0.30654E-01
  rms(prec ) = 0.40551E-01
  weight for this iteration     100.00

 eigenvalues of (default mixing * dielectric matrix)
  average eigenvalue GAMMA=   2.3202
  6.7189  4.3979  4.3979  0.2054  1.2396  1.0343  1.0343  0.8963  0.9568

 Free energy of the ion-electron system (eV)
  ---------------------------------------------------
  alpha Z        PSCENC =       946.92237328
  Ewald energy   TEWEN  =    -20047.84261850
  -Hartree energ DENC   =     -9399.26711688
  -exchange      EXHF   =         0.00000000
  -V(xc)+E(xc)   XCENC  =       701.58322522
  PAW double counting   =     29026.12647763   -30319.27355401
  entropy T*S    EENTRO =        -0.00662304
  eigenvalues    EBANDS =     -2675.66401844
  atomic energy  EATOM  =     31667.00873210
  Solvation  Ediel_sol  =         0.00000000
  ---------------------------------------------------
  free energy    TOTEN  =      -100.41312264 eV

  energy without entropy =     -100.40649960  energy(sigma->0) =     -100.41091496


--------------------------------------------------------------------------------------------------------




--------------------------------------- Iteration      1(  16)  ---------------------------------------


    POTLOK:  cpu time    0.0720: real time    0.0763
    SETDIJ:  cpu time    0.2800: real time    0.2804
     EDDAV:  cpu time   12.8168: real time   12.8565
       DOS:  cpu time    0.0080: real time    0.0081
    CHARGE:  cpu time    0.5680: real time    0.5696
    MIXING:  cpu time    0.0040: real time    0.0045
    --------------------------------------------
      LOOP:  cpu time   13.7489: real time   13.7956

 eigenvalue-minimisations  : 22776
 total energy-change (2. order) : 0.1177244E-03  (-0.2241503E-04)
 number of electron     184.0000013 magnetization      26.1470480
 augmentation part      104.4453535 magnetization      20.9287650

 Broyden mixing:
  rms(total) = 0.13159E-01    rms(broyden)= 0.13157E-01
  rms(prec ) = 0.17469E-01
  weight for this iteration     100.00

 eigenvalues of (default mixing * dielectric matrix)
  average eigenvalue GAMMA=   2.2991
  6.8781  5.0147  3.7153  0.2054  1.9892  1.2598  1.0682  1.0682  0.8961  0.8961

 Free energy of the ion-electron system (eV)
  ---------------------------------------------------
  alpha Z        PSCENC =       946.92237328
  Ewald energy   TEWEN  =    -20047.84261850
  -Hartree energ DENC   =     -9400.11098966
  -exchange      EXHF   =         0.00000000
  -V(xc)+E(xc)   XCENC  =       701.61181105
  PAW double counting   =     29008.47979063   -30301.43812779
  entropy T*S    EENTRO =        -0.00668448
  eigenvalues    EBANDS =     -2675.03729154
  atomic energy  EATOM  =     31667.00873210
  Solvation  Ediel_sol  =         0.00000000
  ---------------------------------------------------
  free energy    TOTEN  =      -100.41300491 eV

  energy without entropy =     -100.40632043  energy(sigma->0) =     -100.41077675


--------------------------------------------------------------------------------------------------------




--------------------------------------- Iteration      1(  17)  ---------------------------------------


    POTLOK:  cpu time    0.0760: real time    0.0764
    SETDIJ:  cpu time    0.2800: real time    0.2834
     EDDAV:  cpu time   12.1728: real time   12.2127
       DOS:  cpu time    0.0080: real time    0.0079
    CHARGE:  cpu time    0.5600: real time    0.5629
    MIXING:  cpu time    0.0040: real time    0.0048
    --------------------------------------------
      LOOP:  cpu time   13.1008: real time   13.1482

 eigenvalue-minimisations  : 21424
 total energy-change (2. order) : 0.4108217E-04  (-0.1042192E-04)
 number of electron     184.0000013 magnetization      26.1543517
 augmentation part      104.4423780 magnetization      20.9329744

 Broyden mixing:
  rms(total) = 0.50512E-02    rms(broyden)= 0.50496E-02
  rms(prec ) = 0.52576E-02
  weight for this iteration     100.00

 eigenvalues of (default mixing * dielectric matrix)
  average eigenvalue GAMMA=   2.3722
  6.4888  5.5377  3.8403  3.8403  0.2054  1.2493  1.0652  1.0652  0.8791  0.9614
  0.9614

 Free energy of the ion-electron system (eV)
  ---------------------------------------------------
  alpha Z        PSCENC =       946.92237328
  Ewald energy   TEWEN  =    -20047.84261850
  -Hartree energ DENC   =     -9400.07049207
  -exchange      EXHF   =         0.00000000
  -V(xc)+E(xc)   XCENC  =       701.62381102
  PAW double counting   =     29001.32408405   -30294.34015609
  entropy T*S    EENTRO =        -0.00661702
  eigenvalues    EBANDS =     -2675.03208060
  atomic energy  EATOM  =     31667.00873210
  Solvation  Ediel_sol  =         0.00000000
  ---------------------------------------------------
  free energy    TOTEN  =      -100.41296383 eV

  energy without entropy =     -100.40634681  energy(sigma->0) =     -100.41075816


--------------------------------------------------------------------------------------------------------




--------------------------------------- Iteration      1(  18)  ---------------------------------------


    POTLOK:  cpu time    0.0800: real time    0.0780
    SETDIJ:  cpu time    0.2840: real time    0.2848
     EDDAV:  cpu time   11.4447: real time   11.4829
       DOS:  cpu time    0.0080: real time    0.0080
    CHARGE:  cpu time    0.5640: real time    0.5657
    MIXING:  cpu time    0.0040: real time    0.0032
    --------------------------------------------
      LOOP:  cpu time   12.3848: real time   12.4226

 eigenvalue-minimisations  : 19608
 total energy-change (2. order) :-0.5796683E-06  (-0.2725957E-05)
 number of electron     184.0000013 magnetization      26.1597448
 augmentation part      104.4438805 magnetization      20.9370690

 Broyden mixing:
  rms(total) = 0.27855E-02    rms(broyden)= 0.27849E-02
  rms(prec ) = 0.29118E-02
  weight for this iteration     100.00

 eigenvalues of (default mixing * dielectric matrix)
  average eigenvalue GAMMA=   2.2994
  6.9344  4.8039  4.2075  4.2075  0.2054  1.2227  0.8991  0.8991  1.0496  1.0496
  1.0569  1.0569

[...]
  0.000   0.000  -0.004   0.000  -0.000   0.000  -0.000   0.000   0.004   0.000   0.000   0.000  -3.350   0.000   0.000   0.000
 -0.000   0.000  -0.000   0.000  -0.004   0.000   0.000   0.000   0.000   0.000   0.004   0.000   0.000   0.000  -3.350   0.000
  0.000   0.000  -0.000   0.000  -0.000   0.000  -0.000   0.000   0.000   0.000   0.000   0.000  -0.000   0.000   0.000   0.000
 -0.004   0.000   0.000   0.000  -0.000   0.000   0.004   0.000  -0.000   0.000   0.000   0.000   0.000   0.000   0.000   0.000
  0.000   0.000  -0.000   0.000   0.000   0.000  -0.000   0.000   0.000   0.000  -0.000   0.000  -0.000   0.000  -0.000   0.000
  0.000   0.000   0.000   0.000  -0.000   0.000   0.000   0.000   0.000   0.000  -0.000   0.000  -0.000   0.000  -0.000   0.000
  0.000   0.000   0.000   0.000  -0.000   0.000   0.000   0.000   0.000   0.000  -0.000   0.000  -0.000   0.000  -0.000   0.000
 pseudopotential strength for first ion, spin component:           2
-43.770   0.000   0.000   0.000   0.000   0.000   7.082   0.000  -0.000   0.000  -0.000   0.000   0.000   0.000  -0.000   0.000
  0.000   0.000 -43.770   0.000   0.000   0.000  -0.000   0.000   7.082   0.000  -0.000   0.000   0.015   0.000  -0.000   0.000
  0.000   0.000   0.000   0.000 -43.770   0.000  -0.000   0.000  -0.000   0.000   7.082   0.000  -0.000   0.000   0.015   0.000
  7.082   0.000  -0.000   0.000  -0.000   0.000   5.814   0.000  -0.000   0.000  -0.000   0.000  -0.000   0.000   0.000   0.000
 -0.000   0.000   7.082   0.000  -0.000   0.000  -0.000   0.000   5.814   0.000  -0.000   0.000  -0.006   0.000   0.000   0.000
 -0.000   0.000  -0.000   0.000   7.082   0.000  -0.000   0.000  -0.000   0.000   5.814   0.000   0.000   0.000  -0.006   0.000
  0.000   0.000   0.015   0.000  -0.000   0.000  -0.000   0.000  -0.006   0.000   0.000   0.000  -1.131   0.000   0.000   0.000
 -0.000   0.000  -0.000   0.000   0.015   0.000   0.000   0.000   0.000   0.000  -0.006   0.000   0.000   0.000  -1.130   0.000
  0.000   0.000  -0.000   0.000  -0.000   0.000  -0.000   0.000   0.000   0.000   0.000   0.000  -0.000   0.000   0.000   0.000
  0.015   0.000   0.000   0.000  -0.000   0.000  -0.006   0.000  -0.000   0.000   0.000   0.000   0.000   0.000   0.000   0.000
  0.000   0.000  -0.000   0.000   0.000   0.000  -0.000   0.000   0.000   0.000  -0.000   0.000  -0.000   0.000  -0.000   0.000
  0.000   0.000   0.015   0.000  -0.000   0.000  -0.000   0.000  -0.006   0.000   0.000   0.000  -1.661   0.000   0.000   0.000
 -0.000   0.000  -0.000   0.000   0.015   0.000   0.000   0.000   0.000   0.000  -0.006   0.000   0.000   0.000  -1.661   0.000
  0.000   0.000  -0.000   0.000  -0.000   0.000  -0.000   0.000   0.000   0.000   0.000   0.000  -0.000   0.000   0.000   0.000
  0.015   0.000   0.000   0.000  -0.000   0.000  -0.006   0.000  -0.000   0.000   0.000   0.000   0.000   0.000   0.000   0.000
  0.000   0.000  -0.000   0.000   0.000   0.000  -0.000   0.000   0.000   0.000  -0.000   0.000  -0.000   0.000  -0.000   0.000
  0.000   0.000   0.000   0.000  -0.000   0.000   0.000   0.000   0.000   0.000  -0.000   0.000  -0.000   0.000  -0.000   0.000
  0.000   0.000   0.000   0.000  -0.000   0.000   0.000   0.000   0.000   0.000  -0.000   0.000  -0.000   0.000  -0.000   0.000
 total augmentation occupancy for first ion, spin component:           1
  1.994   0.000   0.000  -0.021  -0.000   0.000  -0.000  -0.000   0.000   0.005   0.000   0.000   0.000  -0.000  -0.006  -0.000
  0.000   1.994   0.000   0.000  -0.021  -0.000   0.005   0.000   0.000   0.000   0.000  -0.006   0.000   0.000  -0.000  -0.000
  0.000   0.000   1.994   0.000  -0.000  -0.021   0.000   0.005  -0.000  -0.000   0.000  -0.000  -0.006   0.000   0.000   0.000
 -0.021   0.000   0.000   0.155  -0.000   0.000  -0.000  -0.000  -0.000   0.020  -0.000   0.000   0.000  -0.000   0.002  -0.000
 -0.000  -0.021  -0.000  -0.000   0.155  -0.000   0.020   0.000  -0.000  -0.000  -0.000   0.002  -0.000  -0.000   0.000  -0.000
  0.000  -0.000  -0.021   0.000  -0.000   0.155   0.000   0.020   0.000   0.000   0.000  -0.000   0.002  -0.000   0.000  -0.000
 -0.000   0.005   0.000  -0.000   0.020   0.000   2.167  -0.000  -0.000  -0.000   0.000  -1.059   0.000   0.000  -0.000  -0.000
 -0.000  -0.000   0.005   0.000  -0.000   0.020  -0.000   2.167   0.000  -0.000   0.000   0.000  -1.059  -0.000  -0.000   0.000
  0.000   0.000  -0.000  -0.000  -0.000   0.000  -0.000  -0.000   2.457  -0.000  -0.000   0.000   0.000  -1.201  -0.000   0.000
  0.005  -0.000   0.000   0.020  -0.000   0.000  -0.000  -0.000  -0.000   2.167   0.000   0.000   0.000  -0.000  -1.059  -0.000
 -0.000   0.000   0.000   0.000   0.000   0.000  -0.000  -0.000  -0.000   0.000   2.457  -0.000  -0.000   0.000  -0.000  -1.201
  0.000  -0.006  -0.000   0.000   0.002  -0.000  -1.059  -0.000  -0.000   0.000  -0.000   1.305   0.000   0.000   0.000  -0.000
 -0.000   0.000  -0.006   0.000  -0.000   0.002   0.000  -1.059   0.000  -0.000  -0.000  -0.000   1.305   0.000  -0.000  -0.000
  0.000   0.000   0.000  -0.000  -0.000  -0.000  -0.000  -0.000  -1.201   0.000   0.000   0.000  -0.000   1.283  -0.000  -0.000
 -0.006   0.000  -0.000   0.002  -0.000   0.000   0.000   0.000   0.000  -1.059   0.000   0.000   0.000   0.000   1.305  -0.000
 -0.000   0.000   0.000  -0.000  -0.000  -0.000  -0.000  -0.000  -0.000  -0.000  -1.201  -0.000  -0.000  -0.000   0.000   1.283
 -0.000   0.000   0.000   0.000   0.000   0.000   0.000  -0.000  -0.000  -0.000   0.000  -0.000  -0.000   0.000  -0.000  -0.000
  0.000   0.000   0.000   0.000   0.000   0.000  -0.000   0.000  -0.000  -0.000   0.000   0.000   0.000   0.000  -0.000  -0.000
 total augmentation occupancy for first ion, spin component:           2
 -0.002   0.000   0.000  -0.008   0.000  -0.000  -0.000  -0.000   0.000   0.007   0.000   0.000  -0.000   0.000  -0.008  -0.000
  0.000  -0.002   0.000  -0.000  -0.008   0.000   0.007  -0.000   0.000   0.000  -0.000  -0.008   0.000   0.000  -0.000  -0.000
  0.000   0.000  -0.002   0.000   0.000  -0.008  -0.000   0.007   0.000  -0.000  -0.000   0.000  -0.008  -0.000  -0.000  -0.000
 -0.008  -0.000   0.000  -0.002  -0.000  -0.000  -0.000   0.000   0.000  -0.033   0.000  -0.000   0.000   0.000  -0.002  -0.000
  0.000  -0.008   0.000   0.000  -0.002  -0.000  -0.033   0.000   0.000   0.000  -0.000  -0.002   0.000  -0.000  -0.000  -0.000
 -0.000   0.000  -0.008  -0.000   0.000  -0.002   0.000  -0.033   0.000   0.000   0.000   0.000  -0.002   0.000  -0.000  -0.000
 -0.000   0.007  -0.000  -0.000  -0.033  -0.000   1.593   0.000  -0.000  -0.000  -0.000  -0.454  -0.000  -0.000  -0.000  -0.000
 -0.000  -0.000   0.007  -0.000  -0.000  -0.033   0.000   1.593  -0.000   0.000   0.000   0.000  -0.455   0.000   0.000  -0.000
  0.000  -0.000   0.000  -0.000   0.000  -0.000   0.000  -0.000   2.043   0.000   0.000  -0.000   0.000  -0.740  -0.000  -0.000
  0.007  -0.000  -0.000  -0.033   0.000  -0.000  -0.000  -0.000   0.000   1.593   0.000  -0.000   0.000   0.000  -0.455  -0.000
 -0.000   0.000  -0.000  -0.000   0.000   0.000  -0.000  -0.000  -0.000   0.000   2.043  -0.000   0.000   0.000   0.000  -0.740
 -0.000  -0.008   0.000   0.000  -0.002   0.000  -0.454   0.000  -0.000   0.000  -0.000  -0.125   0.000   0.000   0.000   0.000
  0.000  -0.000  -0.008   0.000   0.000  -0.002  -0.000  -0.455  -0.000   0.000  -0.000   0.000  -0.125   0.000   0.000  -0.000
  0.000   0.000  -0.000  -0.000   0.000  -0.000  -0.000   0.000  -0.740  -0.000   0.000  -0.000  -0.000   0.058  -0.000  -0.000
 -0.008   0.000  -0.000  -0.002   0.000  -0.000  -0.000   0.000  -0.000  -0.455   0.000  -0.000  -0.000  -0.000  -0.125  -0.000
 -0.000   0.000  -0.000   0.000  -0.000   0.000   0.000  -0.000  -0.000   0.000  -0.740   0.000   0.000   0.000   0.000   0.058
 -0.000  -0.000  -0.000   0.000   0.000   0.000   0.000   0.000  -0.000   0.000  -0.000  -0.000  -0.000  -0.000  -0.000  -0.000
 -0.000   0.000  -0.000  -0.000   0.000  -0.000   0.000   0.000  -0.000  -0.000  -0.000  -0.000  -0.000   0.000  -0.000  -0.000


------------------------ aborting loop because EDIFF is reached ----------------------------------------


 


 total charge     
 
# of ion       s       p       d       tot
------------------------------------------
    1        0.312   6.288   6.114  12.714
    2        0.312   6.288   6.114  12.714
    3        0.312   6.288   6.114  12.714
    4        0.312   6.288   6.114  12.714
    5        0.312   6.288   6.114  12.714
    6        0.312   6.288   6.114  12.714
    7        0.312   6.288   6.114  12.714
    8        0.312   6.288   6.114  12.714
    9        0.430   6.403   7.204  14.037
   10        0.430   6.403   7.204  14.037
   11        0.430   6.403   7.204  14.037
   12        0.430   6.403   7.204  14.037
   13        1.278   1.851   0.332   3.460
   14        1.278   1.851   0.332   3.460
   15        1.278   1.851   0.332   3.460
   16        1.278   1.851   0.332   3.460
--------------------------------------------------
tot          9.327  83.320  79.049 171.696
 


 magnetization (x)
 
# of ion       s       p       d       tot
------------------------------------------
    1        0.012  -0.007   2.466   2.471
    2        0.012  -0.007   2.466   2.471
    3        0.012  -0.007   2.466   2.471
    4        0.012  -0.007   2.466   2.471
    5        0.012  -0.007   2.466   2.471
    6        0.012  -0.007   2.466   2.471
    7        0.012  -0.007   2.466   2.471
    8        0.012  -0.007   2.466   2.471
    9       -0.022  -0.041   1.859   1.796
   10       -0.022  -0.041   1.859   1.796
   11       -0.022  -0.041   1.859   1.796
   12       -0.022  -0.041   1.859   1.796
   13       -0.019  -0.108  -0.009  -0.136
   14       -0.019  -0.108  -0.009  -0.136
   15       -0.019  -0.108  -0.009  -0.136
   16       -0.019  -0.108  -0.009  -0.136
--------------------------------------------------
tot         -0.067  -0.648  27.126  26.412
 
    CHARGE:  cpu time    0.9641: real time    0.9686
    FORLOC:  cpu time    0.0040: real time    0.0049
    FORNL :  cpu time    2.9842: real time    2.9931
    STRESS:  cpu time    9.1766: real time    9.2073
    FORCOR:  cpu time    0.0680: real time    0.0715
    FORHAR:  cpu time    0.0120: real time    0.0112
    MIXING:  cpu time    0.0040: real time    0.0017
    OFIELD:  cpu time    0.0000: real time    0.0000

  FORCE on cell =-STRESS in cart. coord.  units (eV):
  Direction    XX          YY          ZZ          XY          YZ          ZX
  --------------------------------------------------------------------------------------
  Alpha Z   946.92237   946.92237   946.92237
  Ewald   -6682.67079 -6682.67079 -6682.55726    -0.00000    -0.00000    -0.00000
  Hartree  3133.29403  3133.29403  3133.33026    -0.00000    -0.00000    -0.00000
  E(xc)   -1170.87304 -1170.87304 -1170.87293     0.00000    -0.00000    -0.00000
  Local     620.19495   620.19495   620.04180     0.00000     0.00000     0.00000
  n-local  -236.04357  -232.49970  -234.26530     0.06571     0.00595     0.14180
  augment  1691.15118  1691.15118  1691.14705     0.00000     0.00000     0.00000
  Kinetic  1692.32799  1700.04713  1696.17998    -2.71833    -1.53094    -3.91397
  Fock        0.00000     0.00000     0.00000     0.00000     0.00000     0.00000
  -------------------------------------------------------------------------------------
  Total      -0.06537    -0.06537    -0.07404     0.00000    -0.00000     0.00000
  in kB      -0.47555    -0.47555    -0.53864     0.00000    -0.00000     0.00000
  external pressure =       -0.50 kB  Pullay stress =        0.00 kB


 VOLUME and BASIS-vectors are now :
 -----------------------------------------------------------------------------
  energy-cutoff  :      500.00
  volume of cell :      220.22
      direct lattice vectors                 reciprocal lattice vectors
     6.039289815  0.000000000  0.000000000     0.165582383  0.000000000  0.000000000
     0.000000000  6.039289815  0.000000000     0.000000000  0.165582383  0.000000000
     0.000000000  0.000000000  6.037914393     0.000000000  0.000000000  0.165620102

  length of vectors
     6.039289815  6.039289815  6.037914393     0.165582383  0.165582383  0.165620102


 FORCES acting on ions
    electron-ion (+dipol)            ewald-force                    non-local-force                 convergence-correction
 -----------------------------------------------------------------------------------------------
   -.363E-12 0.415E-11 0.394E-11   0.163E-12 0.426E-13 -.782E-13   -.217E-18 0.976E-18 0.130E-17   -.395E-12 -.398E-12 0.929E-13
   0.202E-11 -.227E-11 0.245E-11   0.163E-12 0.639E-13 -.497E-13   -.542E-17 0.000E+00 -.217E-18   0.395E-12 -.216E-13 0.111E-12
   0.366E-11 0.206E-12 -.340E-13   0.163E-12 0.711E-14 -.497E-13   0.108E-17 -.163E-17 0.130E-17   0.276E-12 0.419E-13 0.124E-12
   0.121E-11 -.493E-11 -.397E-11   0.163E-12 0.995E-13 -.782E-13   -.347E-17 0.184E-17 0.217E-17   -.589E-12 -.423E-12 0.953E-13
   0.202E-11 0.267E-11 -.232E-11   0.163E-12 0.711E-14 0.497E-13   -.239E-17 -.163E-17 0.130E-17   0.440E-12 0.259E-13 -.963E-13
   0.121E-11 -.379E-11 -.493E-11   0.163E-12 0.426E-13 -.711E-14   -.217E-18 0.108E-18 -.434E-18   -.587E-12 -.384E-12 -.610E-13
   -.361E-12 -.872E-12 -.888E-12   0.163E-12 0.995E-13 -.711E-14   0.260E-17 0.184E-17 -.130E-17   -.449E-12 -.448E-12 -.822E-13
   0.366E-11 -.148E-10 -.148E-10   0.163E-12 0.639E-13 0.497E-13   0.412E-17 0.000E+00 -.217E-18   0.284E-12 0.915E-15 -.514E-13
   0.194E-11 0.469E-13 -.818E-13   -.365E-12 -.920E-13 0.222E-13   0.000E+00 0.000E+00 0.000E+00   -.213E-12 0.303E-12 -.624E-13
   -.586E-13 0.204E-11 -.718E-13   -.367E-12 -.809E-13 0.509E-13   0.000E+00 0.000E+00 0.000E+00   0.133E-12 0.458E-12 -.609E-13
   -.592E-13 0.570E-13 0.184E-11   -.385E-12 -.951E-13 0.859E-13   0.000E+00 0.000E+00 0.414E-24   0.217E-12 0.352E-12 0.129E-12
   0.194E-11 0.962E-11 0.944E-11   -.369E-12 -.112E-12 -.844E-13   0.000E+00 0.000E+00 -.931E-24   -.145E-12 0.439E-12 0.113E-12
   -.440E-13 -.235E-13 0.244E-11   0.166E-13 -.259E-13 0.177E-13   0.000E+00 0.207E-24 -.103E-24   -.264E-13 -.235E-13 0.149E-13
   -.206E-13 -.519E-13 -.377E-13   0.146E-13 -.171E-13 -.108E-13   0.000E+00 -.181E-24 0.000E+00   0.306E-13 -.530E-14 0.147E-13
   -.435E-13 0.242E-11 -.778E-14   0.161E-13 -.998E-14 -.130E-13   0.000E+00 -.181E-24 0.000E+00   -.255E-13 -.570E-14 -.151E-13
   -.938E-14 -.254E-13 -.905E-14   0.141E-13 -.261E-13 -.130E-13   0.000E+00 -.207E-24 -.103E-24   0.301E-13 -.245E-13 -.152E-13
 -----------------------------------------------------------------------------------------------
   0.167E-10 -.550E-11 -.704E-11   -.116E-12 -.329E-13 -.115E-12   -.390E-17 0.152E-17 0.390E-17   -.624E-12 -.114E-12 0.251E-12
 
 
 POSITION                                       TOTAL-FORCE (eV/Angst)
 -----------------------------------------------------------------------------------
      1.50982      1.50982      1.50948         0.000000     -0.000000      0.000000
      1.50982      4.52947      1.50948         0.000000     -0.000000      0.000000
      4.52947      1.50982      1.50948        -0.000000     -0.000000      0.000000
      4.52947      4.52947      1.50948        -0.000000      0.000000      0.000000
      1.50982      1.50982      4.52844         0.000000     -0.000000     -0.000000
      4.52947      1.50982      4.52844         0.000000      0.000000      0.000000
      1.50982      4.52947      4.52844         0.000000      0.000000     -0.000000
      4.52947      4.52947      4.52844        -0.000000     -0.000000     -0.000000
      3.01964      0.00000      0.00000        -0.000000      0.000000      0.000000
      0.00000      3.01964      0.00000        -0.000000     -0.000000      0.000000
      0.00000      0.00000      3.01896         0.000000      0.000000      0.000000
      3.01964      3.01964      3.01896         0.000000     -0.000000      0.000000
      3.01964      0.00000      3.01896         0.000000     -0.000000      0.000000
      0.00000      3.01964      3.01896         0.000000     -0.000000      0.000000
      3.01964      3.01964      0.00000         0.000000     -0.000000      0.000000
      0.00000      0.00000      0.00000         0.000000     -0.000000      0.000000
 -----------------------------------------------------------------------------------
    total drift:                                0.000000     -0.000000     -0.000000


--------------------------------------------------------------------------------------------------------



  FREE ENERGIE OF THE ION-ELECTRON SYSTEM (eV)
  ---------------------------------------------------
  free  energy   TOTEN  =      -100.41296911 eV

  energy  without entropy=     -100.40633564  energy(sigma->0) =     -100.41075796
 


--------------------------------------------------------------------------------------------------------


    POTLOK:  cpu time    0.3520: real time    0.3568


--------------------------------------------------------------------------------------------------------


     LOOP+:  cpu time  271.5770: real time  272.6193
    4ORBIT:  cpu time    0.0000: real time    0.0000
 


 total charge     
 
# of ion       s       p       d       tot
------------------------------------------
    1        0.312   6.288   6.114  12.714
    2        0.312   6.288   6.114  12.714
    3        0.312   6.288   6.114  12.714
    4        0.312   6.288   6.114  12.714
    5        0.312   6.288   6.114  12.714
    6        0.312   6.288   6.114  12.714
    7        0.312   6.288   6.114  12.714
    8        0.312   6.288   6.114  12.714
    9        0.430   6.403   7.204  14.037
   10        0.430   6.403   7.204  14.037
   11        0.430   6.403   7.204  14.037
   12        0.430   6.403   7.204  14.037
   13        1.278   1.851   0.332   3.460
   14        1.278   1.851   0.332   3.460
   15        1.278   1.851   0.332   3.460
   16        1.278   1.851   0.332   3.460
--------------------------------------------------
tot          9.327  83.320  79.049 171.696
 


 magnetization (x)
 
# of ion       s       p       d       tot
------------------------------------------
    1        0.012  -0.007   2.466   2.471
    2        0.012  -0.007   2.466   2.471
    3        0.012  -0.007   2.466   2.471
    4        0.012  -0.007   2.466   2.471
    5        0.012  -0.007   2.466   2.471
    6        0.012  -0.007   2.466   2.471
    7        0.012  -0.007   2.466   2.471
    8        0.012  -0.007   2.466   2.471
    9       -0.022  -0.041   1.859   1.796
   10       -0.022  -0.041   1.859   1.796
   11       -0.022  -0.041   1.859   1.796
   12       -0.022  -0.041   1.859   1.796
   13       -0.019  -0.108  -0.009  -0.136
   14       -0.019  -0.108  -0.009  -0.136
   15       -0.019  -0.108  -0.009  -0.136
   16       -0.019  -0.108  -0.009  -0.136
--------------------------------------------------
tot         -0.067  -0.648  27.126  26.412
 

 total amount of memory used by VASP MPI-rank0    55073. kBytes
=======================================================================

   base      :      30000. kBytes
   nonlr-proj:       4531. kBytes
   fftplans  :       4343. kBytes
   grid      :       3686. kBytes
   one-center:         62. kBytes
   wavefun   :      12451. kBytes
 
  
  
 General timing and accounting informations for this job:
 ========================================================
  
                  Total CPU time used (sec):      284.750
                            User time (sec):      282.302
                          System time (sec):        2.448
                         Elapsed time (sec):      288.626
  
                   Maximum memory used (kb):     1006984.
                   Average memory used (kb):           0.
  
                          Minor page faults:       488051
                          Major page faults:            9
                 Voluntary context switches:         4836
