 vasp.6.2.0 18Jan21 (build Feb 24 2021 14:57:03) complex                        
  
 executed on             LinuxIFC date 2023.06.13  23:14:43
 running on   20 total cores
 distrk:  each k-point on   20 cores,    1 groups
 distr:  one band on NCORE=   4 cores,    5 groups


--------------------------------------------------------------------------------------------------------


 INCAR:
   SYSTEM = NiCoMnGa
   LCHARG = .TRUE.
   LWAVE = .FALSE.
   ICHARG = 2
   IBRION = 2
   ISIF = 3
   PREC = Accurate
   ENCUT = 500
   LREAL = A
   POTIM = 0.01
   EDIFF = 1e-6
   ISMEAR = 1
   SIGMA = 0.1
   ISPIN = 2
   LORBIT = 10
   ISYM = 2
   RWIGS = 8*1.164 4*1.302 4*1.217
   MAGMOM = 8*2.3 4*1.2 4*0
   NSW = 0
   NEDOS = 1500
   GGA_COMPAT = .TRUE.
   LMAXMIX = 6
   NELMDL = -6
   NELM = 160
   ADDGRID = .TRUE.
   NPAR = 6
   NCORE = 4
   AMIX = 0.18
   AMIX_MAG = 0.26
   BMIX = 0.0025
   BMIX_MAG = 0.005
   EDIFFG = -1E-3

 POTCAR:    PAW_PBE Fe_pv 02Aug2007               
 POTCAR:    PAW_PBE Co_pv 23Apr2009               
 POTCAR:     PAW_PBE Ga_d 06Jul2010               
 -----------------------------------------------------------------------------
|                                                                             |
|           W    W    AA    RRRRR   N    N  II  N    N   GGGG   !!!           |
|           W    W   A  A   R    R  NN   N  II  NN   N  G    G  !!!           |
|           W    W  A    A  R    R  N N  N  II  N N  N  G       !!!           |
|           W WW W  AAAAAA  RRRRR   N  N N  II  N  N N  G  GGG   !            |
|           WW  WW  A    A  R   R   N   NN  II  N   NN  G    G                |
|           W    W  A    A  R    R  N    N  II  N    N   GGGG   !!!           |
|                                                                             |
|     The value NPAR = 6 specified in the INCAR file was overwritten,         |
|     because it was not compatible with the 20 processes available:          |
|     NPAR = 5                                                                |
|     was used instead, please check that this makes sense for your           |
|     machine.                                                                |
|                                                                             |
 -----------------------------------------------------------------------------

 POTCAR:    PAW_PBE Fe_pv 02Aug2007               
   VRHFIN =Fe:  3pd7s1                                                                              
   LEXCH  = PE                                                                                      
   EATOM  =  2457.4239 eV,  180.6156 Ry                                                             
                                                                                                    
   TITEL  = PAW_PBE Fe_pv 02Aug2007                                                                 
   LULTRA =        F    use ultrasoft PP ?                                                          
   IUNSCR =        1    unscreen: 0-lin 1-nonlin 2-no                                               
   RPACOR =    1.750    partial core radius                                                         
   POMASS =   55.847; ZVAL   =   14.000    mass and valenz                                          
   RCORE  =    2.200    outmost cutoff radius                                                       
   RWIGS  =    2.200; RWIGS  =    1.164    wigner-seitz radius (au A)                               
   ENMAX  =  293.238; ENMIN  =  219.928 eV                                                          
   ICORE  =        3    local potential                                                             
   LCOR   =        T    correct aug charges                                                         
   LPAW   =        T    paw PP                                                                      
   EAUG   =  578.342                                                                                
   DEXC   =    0.000                                                                                
   RMAX   =    2.249    core radius for proj-oper                                                   
   RAUG   =    1.300    factor for augmentation sphere                                              
   RDEP   =    2.296    radius for radial grids                                                     
   RDEPT  =    1.766    core radius for aug-charge                                                  
                                                                                                    
   Atomic configuration                                                                             
    8 entries                                                                                       
     n  l   j            E        occ.                                                              
     1  0  0.50     -6993.8440   2.0000                                                             
     2  0  0.50      -814.6047   2.0000                                                             
     2  1  1.50      -693.3689   6.0000                                                             
     3  0  0.50       -89.4732   2.0000                                                             
     3  1  1.50       -55.6373   6.0000                                                             
     3  2  2.50        -3.8151   7.0000                                                             
     4  0  0.50        -4.2551   1.0000                                                             
     4  3  2.50        -1.3606   0.0000                                                             
   Description                                                                                      
     l       E           TYP  RCUT    TYP  RCUT                                                     
     1    -55.6372668     23  2.000                                                                 
     1     -5.4423304     23  2.000                                                                 
     2     -3.8151096     23  2.200                                                                 
     2     -5.1756922     23  2.200                                                                 
     0     -4.2550951     23  2.200                                                                 
     0     27.2116520     23  2.200                                                                 
     3     -1.3605826     23  2.200                                                                 
  local pseudopotential read in
  partial core-charges read in
  partial kinetic energy density read in
  atomic valenz-charges read in
  non local Contribution for L=           1  read in
    real space projection operators read in
  non local Contribution for L=           1  read in
    real space projection operators read in
  non local Contribution for L=           2  read in
    real space projection operators read in
  non local Contribution for L=           2  read in
    real space projection operators read in
  non local Contribution for L=           0  read in
    real space projection operators read in
  non local Contribution for L=           0  read in
    real space projection operators read in
    PAW grid and wavefunctions read in
 
   number of l-projection  operators is LMAX  =           6
   number of lm-projection operators is LMMAX =          18
 
 POTCAR:    PAW_PBE Co_pv 23Apr2009               
   VRHFIN =Co: 3pd7s1                                                                               
   LEXCH  = PE                                                                                      
   EATOM  =  2948.1334 eV,  216.6817 Ry                                                             
                                                                                                    
   TITEL  = PAW_PBE Co_pv 23Apr2009                                                                 
   LULTRA =        F    use ultrasoft PP ?                                                          
   IUNSCR =        1    unscreen: 0-lin 1-nonlin 2-no                                               
   RPACOR =    2.000    partial core radius                                                         
   POMASS =   58.933; ZVAL   =   15.000    mass and valenz                                          
   RCORE  =    2.300    outmost cutoff radius                                                       
   RWIGS  =    2.460; RWIGS  =    1.302    wigner-seitz radius (au A)                               
   ENMAX  =  271.042; ENMIN  =  203.281 eV                                                          
   ICORE  =        3    local potential                                                             
   LCOR   =        T    correct aug charges                                                         
   LPAW   =        T    paw PP                                                                      
   EAUG   =  543.066                                                                                
   DEXC   =    0.000                                                                                
   RMAX   =    2.360    core radius for proj-oper                                                   
   RAUG   =    1.300    factor for augmentation sphere                                              
   RDEP   =    2.393    radius for radial grids                                                     
   RDEPT  =    1.841    core radius for aug-charge                                                  
                                                                                                    
   Atomic configuration                                                                             
    8 entries                                                                                       
     n  l   j            E        occ.                                                              
     1  0  0.50     -7587.6674   2.0000                                                             
     2  0  0.50      -893.6084   2.0000                                                             
     2  1  1.50      -764.5805   6.0000                                                             
     3  0  0.50       -97.5973   2.0000                                                             
     3  1  1.50       -60.9648   6.0000                                                             
     3  2  2.50        -4.2382   8.0000                                                             
     4  0  0.50        -4.3746   1.0000                                                             
     4  3  2.50        -1.3606   0.0000                                                             
   Description                                                                                      
     l       E           TYP  RCUT    TYP  RCUT                                                     
     1    -60.9647990     23  2.000                                                                 
     1     -5.4423304     23  2.000                                                                 
     2     -4.2382362     23  2.300                                                                 
     2     -5.5988188     23  2.300                                                                 
     0     -4.3745797     23  2.300                                                                 
     0      5.7660125     23  2.300                                                                 
     3     -1.3605826     23  2.300                                                                 
  local pseudopotential read in
  partial core-charges read in
  partial kinetic energy density read in
  atomic valenz-charges read in
  non local Contribution for L=           1  read in
    real space projection operators read in
  non local Contribution for L=           1  read in
    real space projection operators read in
  non local Contribution for L=           2  read in
    real space projection operators read in
  non local Contribution for L=           2  read in
    real space projection operators read in
  non local Contribution for L=           0  read in
    real space projection operators read in
  non local Contribution for L=           0  read in
    real space projection operators read in
    PAW grid and wavefunctions read in
 
   number of l-projection  operators is LMAX  =           6
   number of lm-projection operators is LMMAX =          18
 
 POTCAR:     PAW_PBE Ga_d 06Jul2010               
   VRHFIN =Ga: s2p1                                                                                 
   LEXCH  = PE                                                                                      
   EATOM  =  2148.8298 eV,  157.9345 Ry                                                             
                                                                                                    
   TITEL  = PAW_PBE Ga_d 06Jul2010                                                                  
   LULTRA =        F    use ultrasoft PP ?                                                          
   IUNSCR =        1    unscreen: 0-lin 1-nonlin 2-no                                               
   RPACOR =    1.700    partial core radius                                                         
   POMASS =   69.723; ZVAL   =   13.000    mass and valenz                                          
   RCORE  =    2.300    outmost cutoff radius                                                       
   RWIGS  =    2.300; RWIGS  =    1.217    wigner-seitz radius (au A)                               
   ENMAX  =  282.691; ENMIN  =  212.018 eV                                                          
   ICORE  =        3    local potential                                                             
   LCOR   =        T    correct aug charges                                                         
   LPAW   =        T    paw PP                                                                      
   EAUG   =  490.690                                                                                
   DEXC   =    0.000                                                                                
   RMAX   =    2.341    core radius for proj-oper                                                   
   RAUG   =    1.300    factor for augmentation sphere                                              
   RDEP   =    2.413    radius for radial grids                                                     
   RDEPT  =    1.856    core radius for aug-charge                                                  
                                                                                                    
   Atomic configuration                                                                             
    9 entries                                                                                       
     n  l   j            E        occ.                                                              
     1  0  0.50    -10228.7831   2.0000                                                             
     2  0  0.50     -1262.1604   2.0000                                                             
     2  1  1.50     -1098.6333   6.0000                                                             
     3  0  0.50      -148.1110   2.0000                                                             
     3  1  1.50       -98.8436   6.0000                                                             
     3  2  2.50       -19.1549  10.0000                                                             
     4  0  0.50        -8.9483   2.0000                                                             
     4  1  0.50        -2.5791   1.0000                                                             
     4  3  2.50        -2.7416   0.0000                                                             
   Description                                                                                      
     l       E           TYP  RCUT    TYP  RCUT                                                     
     2    -19.1549037     23  2.300                                                                 
     2     -5.4423304     23  2.300                                                                 
     0     -8.9483111     23  2.300                                                                 
     0     68.0291300     23  2.300                                                                 
     1     -2.5790802     23  2.100                                                                 
     1     81.6349560     23  2.300                                                                 
     3      6.8029130     23  2.300                                                                 
  local pseudopotential read in
  partial core-charges read in
  partial kinetic energy density read in
  atomic valenz-charges read in
  non local Contribution for L=           2  read in
    real space projection operators read in
  non local Contribution for L=           2  read in
    real space projection operators read in
  non local Contribution for L=           0  read in
    real space projection operators read in
  non local Contribution for L=           0  read in
    real space projection operators read in
  non local Contribution for L=           1  read in
    real space projection operators read in
  non local Contribution for L=           1  read in
    real space projection operators read in
    PAW grid and wavefunctions read in
 
   number of l-projection  operators is LMAX  =           6
   number of lm-projection operators is LMMAX =          18
 
 Optimization of the real space projectors (new method)

 maximal supplied QI-value         = 17.01
 optimisation between [QCUT,QGAM] = [ 11.40, 22.79] = [ 36.36,145.44] Ry 
 Optimized for a Real-space Cutoff    1.47 Angstroem

   l    n(q)    QCUT    max X(q) W(low)/X(q) W(high)/X(q)  e(spline) 
   1     10    11.395     4.267    0.90E-04    0.11E-03    0.18E-06
   1     10    11.395     5.750    0.14E-03    0.15E-03    0.25E-06
   2      9    11.395    53.656    0.13E-03    0.36E-04    0.15E-06
   2      9    11.395    49.521    0.14E-03    0.36E-04    0.15E-06
   0     10    11.395    31.246    0.58E-04    0.17E-05    0.98E-07
   0     10    11.395    12.201    0.41E-04    0.11E-05    0.82E-07
 Optimization of the real space projectors (new method)

 maximal supplied QI-value         = 16.25
 optimisation between [QCUT,QGAM] = [ 11.38, 22.75] = [ 36.24,144.96] Ry 
 Optimized for a Real-space Cutoff    1.47 Angstroem

   l    n(q)    QCUT    max X(q) W(low)/X(q) W(high)/X(q)  e(spline) 
   1     10    11.376     4.946    0.88E-04    0.16E-03    0.15E-06
   1     10    11.376     5.991    0.13E-03    0.24E-03    0.21E-06
   2      9    11.376    46.947    0.87E-04    0.91E-04    0.20E-06
   2      9    11.376    42.928    0.91E-04    0.94E-04    0.20E-06
   0     10    11.376    68.324    0.58E-04    0.21E-04    0.82E-07
   0     10    11.376    36.926    0.52E-04    0.19E-04    0.78E-07
 Optimization of the real space projectors (new method)

 maximal supplied QI-value         = 16.25
 optimisation between [QCUT,QGAM] = [ 11.38, 22.75] = [ 36.24,144.96] Ry 
 Optimized for a Real-space Cutoff    1.43 Angstroem

   l    n(q)    QCUT    max X(q) W(low)/X(q) W(high)/X(q)  e(spline) 
   2      9    11.376     7.143    0.28E-04    0.12E-03    0.13E-06
   2      9    11.376     5.586    0.74E-04    0.22E-03    0.21E-06
   0     10    11.376    12.382    0.35E-04    0.14E-04    0.32E-07
   0     10    11.376     6.622    0.55E-04    0.29E-04    0.68E-07
   1      9    11.376     7.935    0.24E-03    0.22E-03    0.14E-06
   1      9    11.376     2.425    0.20E-03    0.19E-03    0.14E-06
  PAW_PBE Fe_pv 02Aug2007               :
 energy of atom  1       EATOM=-2457.4239
 kinetic energy error for atom=    0.0069 (will be added to EATOM!!)
  PAW_PBE Co_pv 23Apr2009               :
 energy of atom  2       EATOM=-2948.1334
 kinetic energy error for atom=    0.0060 (will be added to EATOM!!)
   PAW_PBE Ga_d 06Jul2010               :
 energy of atom  3       EATOM=-2148.8298
 kinetic energy error for atom=    0.0026 (will be added to EATOM!!)
 
 
 POSCAR: Heusler tetragonGa
  positions in direct lattice
  velocities in cartesian coordinates
 exchange correlation table for  LEXCH =        8
   RHO(1)=    0.500       N(1)  =     2000
   RHO(2)=  100.500       N(2)  =     4000
 


--------------------------------------------------------------------------------------------------------


 ion  position               nearest neighbor table
   1  0.250  0.250  0.250-   9 2.50  10 2.50  11 2.50  12 2.50  13 2.50  14 2.50  15 2.50  16 2.50

   2  0.250  0.750  0.250-   9 2.50  10 2.50  11 2.50  12 2.50  13 2.50  14 2.50  15 2.50  16 2.50

   3  0.750  0.250  0.250-   9 2.50  10 2.50  11 2.50  12 2.50  13 2.50  14 2.50  15 2.50  16 2.50

   4  0.750  0.750  0.250-   9 2.50  10 2.50  11 2.50  12 2.50  13 2.50  14 2.50  15 2.50  16 2.50

   5  0.250  0.250  0.750-   9 2.50  10 2.50  11 2.50  12 2.50  13 2.50  14 2.50  15 2.50  16 2.50

   6  0.750  0.250  0.750-   9 2.50  10 2.50  11 2.50  12 2.50  13 2.50  14 2.50  15 2.50  16 2.50

   7  0.250  0.750  0.750-   9 2.50  10 2.50  11 2.50  12 2.50  13 2.50  14 2.50  15 2.50  16 2.50

   8  0.750  0.750  0.750-   9 2.50  10 2.50  11 2.50  12 2.50  13 2.50  14 2.50  15 2.50  16 2.50

   9  0.500  0.000  0.000-   1 2.50   2 2.50   3 2.50   4 2.50   5 2.50   6 2.50   7 2.50   8 2.50

  10  0.000  0.500  0.000-   1 2.50   2 2.50   3 2.50   4 2.50   5 2.50   6 2.50   7 2.50   8 2.50

  11  0.000  0.000  0.500-   1 2.50   2 2.50   3 2.50   4 2.50   5 2.50   6 2.50   7 2.50   8 2.50

  12  0.500  0.500  0.500-   1 2.50   2 2.50   3 2.50   4 2.50   5 2.50   6 2.50   7 2.50   8 2.50

  13  0.500  0.000  0.500-   1 2.50   2 2.50   3 2.50   4 2.50   5 2.50   6 2.50   7 2.50   8 2.50

  14  0.000  0.500  0.500-   1 2.50   2 2.50   3 2.50   4 2.50   5 2.50   6 2.50   7 2.50   8 2.50

  15  0.500  0.500  0.000-   1 2.50   2 2.50   3 2.50   4 2.50   5 2.50   6 2.50   7 2.50   8 2.50

  16  0.000  0.000  0.000-   1 2.50   2 2.50   3 2.50   4 2.50   5 2.50   6 2.50   7 2.50   8 2.50

 
  LATTYP: Found a simple tetragonal cell.
 ALAT       =     5.7662097054
 C/A-ratio  =     0.9997896969
  
  Lattice vectors:
  
 A1 = (   5.7662097054,   0.0000000000,   0.0000000000)
 A2 = (   0.0000000000,   5.7662097054,   0.0000000000)
 A3 = (   0.0000000000,   0.0000000000,   5.7649970535)


Analysis of symmetry for initial positions (statically):
=====================================================================
 Subroutine PRICEL returns following result:
 
  LATTYP: Found a body centered tetragonal cell.
 ALAT       =     4.0773259844
 C/A-ratio  =     1.4139161489
  
  Lattice vectors:
  
 A1 = (   2.8831048527,   0.0000000000,  -2.8824985267)
 A2 = (  -2.8831048527,   0.0000000000,  -2.8824985267)
 A3 = (   0.0000000000,   2.8831048527,   2.8824985267)
 
   4 primitive cells build up your supercell.
 

 Routine SETGRP: Setting up the symmetry group for a 
 simple tetragonal supercell.


 Subroutine GETGRP returns: Found 16 space group operations
 (whereof 16 operations were pure point group operations)
 out of a pool of 16 trial point group operations.


The static configuration has the point symmetry D_4h.


Analysis of symmetry for dynamics (positions and initial velocities):
=====================================================================
 Subroutine PRICEL returns following result:
 
  LATTYP: Found a body centered tetragonal cell.
 ALAT       =     4.0773259844
 C/A-ratio  =     1.4139161489
  
  Lattice vectors:
  
 A1 = (   2.8831048527,   0.0000000000,  -2.8824985267)
 A2 = (  -2.8831048527,   0.0000000000,  -2.8824985267)
 A3 = (   0.0000000000,   2.8831048527,   2.8824985267)
 
   4 primitive cells build up your supercell.
 

 Routine SETGRP: Setting up the symmetry group for a 
 simple tetragonal supercell.


 Subroutine GETGRP returns: Found 16 space group operations
 (whereof 16 operations were pure point group operations)
 out of a pool of 16 trial point group operations.


The dynamic configuration has the point symmetry D_4h.


Analysis of structural, dynamic, and magnetic symmetry:
=====================================================================
 Subroutine PRICEL returns following result:
 
  LATTYP: Found a body centered tetragonal cell.
 ALAT       =     4.0773259844
 C/A-ratio  =     1.4139161489
  
  Lattice vectors:
  
 A1 = (   2.8831048527,   0.0000000000,  -2.8824985267)
 A2 = (  -2.8831048527,   0.0000000000,  -2.8824985267)
 A3 = (   0.0000000000,   2.8831048527,   2.8824985267)
 
   4 primitive cells build up your supercell.
 

 Routine SETGRP: Setting up the symmetry group for a 
 simple tetragonal supercell.


 Subroutine GETGRP returns: Found 16 space group operations
 (whereof 16 operations were pure point group operations)
 out of a pool of 16 trial point group operations.


The overall configuration has the point symmetry D_4h.


 Subroutine INISYM returns: Found 16 space group operations
 (whereof 16 operations are pure point group operations),
 and found     4 'primitive' translations


----------------------------------------------------------------------------------------

                                     Primitive cell                                     

  volume of cell :      47.9203

  direct lattice vectors                    reciprocal lattice vectors
     2.883104853  0.000000000 -2.882498527     0.173424147  0.173424147 -0.173460626
    -2.883104853  0.000000000 -2.882498527    -0.173424147  0.173424147 -0.173460626
     0.000000000  2.883104853  2.882498527     0.000000000  0.346848294  0.000000000

  length of vectors
     4.076897270  4.076897270  4.076897270     0.300400497  0.300400497  0.346848294

  position of ions in fractional coordinates (direct lattice)
     0.250000000  0.750000000  0.500000000
     0.750000000  0.250000000  0.500000000
     0.500000000  0.500000000  0.000000000
     1.000000000  1.000000000  0.000000000

  ion indices of the primitive-cell ions
   primitive index   ion index
                 1           1
                 2           2
                 3           9
                 4          13

----------------------------------------------------------------------------------------

 
 
 KPOINTS: Ni7CoMn5CrSn2                           

Automatic generation of k-mesh.
 Grid dimensions read from file:
 generate k-points for:   15   15   15

 Generating k-lattice:

  Cartesian coordinates                     Fractional coordinates (reciprocal lattice)
     0.011561610  0.000000000  0.000000000     0.066666667  0.000000000  0.000000000
     0.000000000  0.011561610  0.000000000     0.000000000  0.066666667  0.000000000
     0.000000000  0.000000000  0.011564042     0.000000000  0.000000000  0.066666667

  Length of vectors
     0.011561610  0.011561610  0.011564042

  Shift w.r.t. Gamma in fractional coordinates (k-lattice)
     0.000000000  0.000000000  0.000000000

 
 Subroutine IBZKPT returns following result:
 ===========================================
 
 Found    288 irreducible k-points:
 
 Following reciprocal coordinates:
            Coordinates               Weight
  0.000000  0.000000  0.000000      1.000000
  0.066667  0.000000  0.000000      4.000000
  0.133333  0.000000  0.000000      4.000000
  0.200000  0.000000  0.000000      4.000000
  0.266667  0.000000  0.000000      4.000000
  0.333333  0.000000  0.000000      4.000000
  0.400000  0.000000  0.000000      4.000000
  0.466667  0.000000  0.000000      4.000000
  0.066667  0.066667  0.000000      4.000000
  0.133333  0.066667  0.000000      8.000000
  0.200000  0.066667  0.000000      8.000000
  0.266667  0.066667  0.000000      8.000000
  0.333333  0.066667  0.000000      8.000000
  0.400000  0.066667  0.000000      8.000000
  0.466667  0.066667  0.000000      8.000000
  0.133333  0.133333  0.000000      4.000000
  0.200000  0.133333  0.000000      8.000000
  0.266667  0.133333  0.000000      8.000000
  0.333333  0.133333  0.000000      8.000000
  0.400000  0.133333  0.000000      8.000000
  0.466667  0.133333  0.000000      8.000000
  0.200000  0.200000  0.000000      4.000000
  0.266667  0.200000  0.000000      8.000000
  0.333333  0.200000  0.000000      8.000000
  0.400000  0.200000  0.000000      8.000000
  0.466667  0.200000  0.000000      8.000000
  0.266667  0.266667  0.000000      4.000000
  0.333333  0.266667  0.000000      8.000000
  0.400000  0.266667  0.000000      8.000000
  0.466667  0.266667  0.000000      8.000000
  0.333333  0.333333  0.000000      4.000000
  0.400000  0.333333  0.000000      8.000000
  0.466667  0.333333  0.000000      8.000000
  0.400000  0.400000  0.000000      4.000000
  0.466667  0.400000  0.000000      8.000000
  0.466667  0.466667  0.000000      4.000000
  0.000000  0.000000  0.066667      2.000000
  0.066667  0.000000  0.066667      8.000000
  0.133333  0.000000  0.066667      8.000000
  0.200000  0.000000  0.066667      8.000000
  0.266667  0.000000  0.066667      8.000000
  0.333333  0.000000  0.066667      8.000000
  0.400000  0.000000  0.066667      8.000000
  0.466667  0.000000  0.066667      8.000000
  0.066667  0.066667  0.066667      8.000000
  0.133333  0.066667  0.066667     16.000000
  0.200000  0.066667  0.066667     16.000000
  0.266667  0.066667  0.066667     16.000000
  0.333333  0.066667  0.066667     16.000000
  0.400000  0.066667  0.066667     16.000000
  0.466667  0.066667  0.066667     16.000000
  0.133333  0.133333  0.066667      8.000000
  0.200000  0.133333  0.066667     16.000000
  0.266667  0.133333  0.066667     16.000000
  0.333333  0.133333  0.066667     16.000000
  0.400000  0.133333  0.066667     16.000000
  0.466667  0.133333  0.066667     16.000000
  0.200000  0.200000  0.066667      8.000000
  0.266667  0.200000  0.066667     16.000000
  0.333333  0.200000  0.066667     16.000000
  0.400000  0.200000  0.066667     16.000000
  0.466667  0.200000  0.066667     16.000000
  0.266667  0.266667  0.066667      8.000000
  0.333333  0.266667  0.066667     16.000000
  0.400000  0.266667  0.066667     16.000000
  0.466667  0.266667  0.066667     16.000000
  0.333333  0.333333  0.066667      8.000000
  0.400000  0.333333  0.066667     16.000000
  0.466667  0.333333  0.066667     16.000000
  0.400000  0.400000  0.066667      8.000000
  0.466667  0.400000  0.066667     16.000000
  0.466667  0.466667  0.066667      8.000000
  0.000000  0.000000  0.133333      2.000000
  0.066667  0.000000  0.133333      8.000000
  0.133333  0.000000  0.133333      8.000000
  0.200000  0.000000  0.133333      8.000000
  0.266667  0.000000  0.133333      8.000000
  0.333333  0.000000  0.133333      8.000000
  0.400000  0.000000  0.133333      8.000000
  0.466667  0.000000  0.133333      8.000000
  0.066667  0.066667  0.133333      8.000000
  0.133333  0.066667  0.133333     16.000000
  0.200000  0.066667  0.133333     16.000000
  0.266667  0.066667  0.133333     16.000000
  0.333333  0.066667  0.133333     16.000000
  0.400000  0.066667  0.133333     16.000000
  0.466667  0.066667  0.133333     16.000000
  0.133333  0.133333  0.133333      8.000000
  0.200000  0.133333  0.133333     16.000000
  0.266667  0.133333  0.133333     16.000000
  0.333333  0.133333  0.133333     16.000000
  0.400000  0.133333  0.133333     16.000000
  0.466667  0.133333  0.133333     16.000000
  0.200000  0.200000  0.133333      8.000000
  0.266667  0.200000  0.133333     16.000000
  0.333333  0.200000  0.133333     16.000000
  0.400000  0.200000  0.133333     16.000000
  0.466667  0.200000  0.133333     16.000000
  0.266667  0.266667  0.133333      8.000000
  0.333333  0.266667  0.133333     16.000000
  0.400000  0.266667  0.133333     16.000000
  0.466667  0.266667  0.133333     16.000000
  0.333333  0.333333  0.133333      8.000000
  0.400000  0.333333  0.133333     16.000000
  0.466667  0.333333  0.133333     16.000000
  0.400000  0.400000  0.133333      8.000000
  0.466667  0.400000  0.133333     16.000000
  0.466667  0.466667  0.133333      8.000000
  0.000000  0.000000  0.200000      2.000000
  0.066667  0.000000  0.200000      8.000000
  0.133333  0.000000  0.200000      8.000000
  0.200000  0.000000  0.200000      8.000000
  0.266667  0.000000  0.200000      8.000000
  0.333333  0.000000  0.200000      8.000000
  0.400000  0.000000  0.200000      8.000000
  0.466667  0.000000  0.200000      8.000000
  0.066667  0.066667  0.200000      8.000000
  0.133333  0.066667  0.200000     16.000000
  0.200000  0.066667  0.200000     16.000000
  0.266667  0.066667  0.200000     16.000000
  0.333333  0.066667  0.200000     16.000000
  0.400000  0.066667  0.200000     16.000000
  0.466667  0.066667  0.200000     16.000000
  0.133333  0.133333  0.200000      8.000000
  0.200000  0.133333  0.200000     16.000000
  0.266667  0.133333  0.200000     16.000000
  0.333333  0.133333  0.200000     16.000000
  0.400000  0.133333  0.200000     16.000000
  0.466667  0.133333  0.200000     16.000000
  0.200000  0.200000  0.200000      8.000000
  0.266667  0.200000  0.200000     16.000000
  0.333333  0.200000  0.200000     16.000000
  0.400000  0.200000  0.200000     16.000000
  0.466667  0.200000  0.200000     16.000000
  0.266667  0.266667  0.200000      8.000000
  0.333333  0.266667  0.200000     16.000000
  0.400000  0.266667  0.200000     16.000000
  0.466667  0.266667  0.200000     16.000000
  0.333333  0.333333  0.200000      8.000000
  0.400000  0.333333  0.200000     16.000000
  0.466667  0.333333  0.200000     16.000000
  0.400000  0.400000  0.200000      8.000000
  0.466667  0.400000  0.200000     16.000000
  0.466667  0.466667  0.200000      8.000000
  0.000000  0.000000  0.266667      2.000000
  0.066667  0.000000  0.266667      8.000000
  0.133333  0.000000  0.266667      8.000000
  0.200000  0.000000  0.266667      8.000000
  0.266667  0.000000  0.266667      8.000000
  0.333333  0.000000  0.266667      8.000000
  0.400000  0.000000  0.266667      8.000000
  0.466667  0.000000  0.266667      8.000000
  0.066667  0.066667  0.266667      8.000000
  0.133333  0.066667  0.266667     16.000000
  0.200000  0.066667  0.266667     16.000000
  0.266667  0.066667  0.266667     16.000000
  0.333333  0.066667  0.266667     16.000000
  0.400000  0.066667  0.266667     16.000000
  0.466667  0.066667  0.266667     16.000000
  0.133333  0.133333  0.266667      8.000000
  0.200000  0.133333  0.266667     16.000000
  0.266667  0.133333  0.266667     16.000000
  0.333333  0.133333  0.266667     16.000000
  0.400000  0.133333  0.266667     16.000000
  0.466667  0.133333  0.266667     16.000000
  0.200000  0.200000  0.266667      8.000000
  0.266667  0.200000  0.266667     16.000000
  0.333333  0.200000  0.266667     16.000000
  0.400000  0.200000  0.266667     16.000000
  0.466667  0.200000  0.266667     16.000000
  0.266667  0.266667  0.266667      8.000000
  0.333333  0.266667  0.266667     16.000000
  0.400000  0.266667  0.266667     16.000000
  0.466667  0.266667  0.266667     16.000000
  0.333333  0.333333  0.266667      8.000000
  0.400000  0.333333  0.266667     16.000000
  0.466667  0.333333  0.266667     16.000000
  0.400000  0.400000  0.266667      8.000000
  0.466667  0.400000  0.266667     16.000000
  0.466667  0.466667  0.266667      8.000000
  0.000000  0.000000  0.333333      2.000000
  0.066667  0.000000  0.333333      8.000000
  0.133333  0.000000  0.333333      8.000000
  0.200000  0.000000  0.333333      8.000000
  0.266667  0.000000  0.333333      8.000000
  0.333333  0.000000  0.333333      8.000000
  0.400000  0.000000  0.333333      8.000000
  0.466667  0.000000  0.333333      8.000000
  0.066667  0.066667  0.333333      8.000000
  0.133333  0.066667  0.333333     16.000000
  0.200000  0.066667  0.333333     16.000000
  0.266667  0.066667  0.333333     16.000000
  0.333333  0.066667  0.333333     16.000000
  0.400000  0.066667  0.333333     16.000000
  0.466667  0.066667  0.333333     16.000000
  0.133333  0.133333  0.333333      8.000000
  0.200000  0.133333  0.333333     16.000000
  0.266667  0.133333  0.333333     16.000000
  0.333333  0.133333  0.333333     16.000000
  0.400000  0.133333  0.333333     16.000000
  0.466667  0.133333  0.333333     16.000000
  0.200000  0.200000  0.333333      8.000000
  0.266667  0.200000  0.333333     16.000000
  0.333333  0.200000  0.333333     16.000000
  0.400000  0.200000  0.333333     16.000000
  0.466667  0.200000  0.333333     16.000000
  0.266667  0.266667  0.333333      8.000000
  0.333333  0.266667  0.333333     16.000000
  0.400000  0.266667  0.333333     16.000000
  0.466667  0.266667  0.333333     16.000000
  0.333333  0.333333  0.333333      8.000000
  0.400000  0.333333  0.333333     16.000000
  0.466667  0.333333  0.333333     16.000000
  0.400000  0.400000  0.333333      8.000000
  0.466667  0.400000  0.333333     16.000000
  0.466667  0.466667  0.333333      8.000000
  0.000000  0.000000  0.400000      2.000000
  0.066667  0.000000  0.400000      8.000000
  0.133333  0.000000  0.400000      8.000000
  0.200000  0.000000  0.400000      8.000000
  0.266667  0.000000  0.400000      8.000000
  0.333333  0.000000  0.400000      8.000000
  0.400000  0.000000  0.400000      8.000000
  0.466667  0.000000  0.400000      8.000000
  0.066667  0.066667  0.400000      8.000000
  0.133333  0.066667  0.400000     16.000000
  0.200000  0.066667  0.400000     16.000000
  0.266667  0.066667  0.400000     16.000000
  0.333333  0.066667  0.400000     16.000000
  0.400000  0.066667  0.400000     16.000000
  0.466667  0.066667  0.400000     16.000000
  0.133333  0.133333  0.400000      8.000000
  0.200000  0.133333  0.400000     16.000000
  0.266667  0.133333  0.400000     16.000000
  0.333333  0.133333  0.400000     16.000000
  0.400000  0.133333  0.400000     16.000000
  0.466667  0.133333  0.400000     16.000000
  0.200000  0.200000  0.400000      8.000000
  0.266667  0.200000  0.400000     16.000000
  0.333333  0.200000  0.400000     16.000000
  0.400000  0.200000  0.400000     16.000000
  0.466667  0.200000  0.400000     16.000000
  0.266667  0.266667  0.400000      8.000000
  0.333333  0.266667  0.400000     16.000000
  0.400000  0.266667  0.400000     16.000000
  0.466667  0.266667  0.400000     16.000000
  0.333333  0.333333  0.400000      8.000000
  0.400000  0.333333  0.400000     16.000000
  0.466667  0.333333  0.400000     16.000000
  0.400000  0.400000  0.400000      8.000000
  0.466667  0.400000  0.400000     16.000000
  0.466667  0.466667  0.400000      8.000000
  0.000000  0.000000  0.466667      2.000000
  0.066667  0.000000  0.466667      8.000000
  0.133333  0.000000  0.466667      8.000000
  0.200000  0.000000  0.466667      8.000000
  0.266667  0.000000  0.466667      8.000000
  0.333333  0.000000  0.466667      8.000000
  0.400000  0.000000  0.466667      8.000000
  0.466667  0.000000  0.466667      8.000000
  0.066667  0.066667  0.466667      8.000000
  0.133333  0.066667  0.466667     16.000000
  0.200000  0.066667  0.466667     16.000000
  0.266667  0.066667  0.466667     16.000000
  0.333333  0.066667  0.466667     16.000000
  0.400000  0.066667  0.466667     16.000000
  0.466667  0.066667  0.466667     16.000000
  0.133333  0.133333  0.466667      8.000000
  0.200000  0.133333  0.466667     16.000000
  0.266667  0.133333  0.466667     16.000000
  0.333333  0.133333  0.466667     16.000000
  0.400000  0.133333  0.466667     16.000000
  0.466667  0.133333  0.466667     16.000000
  0.200000  0.200000  0.466667      8.000000
  0.266667  0.200000  0.466667     16.000000
  0.333333  0.200000  0.466667     16.000000
  0.400000  0.200000  0.466667     16.000000
  0.466667  0.200000  0.466667     16.000000
  0.266667  0.266667  0.466667      8.000000
  0.333333  0.266667  0.466667     16.000000
  0.400000  0.266667  0.466667     16.000000
  0.466667  0.266667  0.466667     16.000000
  0.333333  0.333333  0.466667      8.000000
  0.400000  0.333333  0.466667     16.000000
  0.466667  0.333333  0.466667     16.000000
  0.400000  0.400000  0.466667      8.000000
  0.466667  0.400000  0.466667     16.000000
  0.466667  0.466667  0.466667      8.000000
 
 Following cartesian coordinates:
            Coordinates               Weight
  0.000000  0.000000  0.000000      1.000000
  0.066595  0.000000  0.000000      4.000000
  0.133190  0.000000  0.000000      4.000000
  0.199785  0.000000  0.000000      4.000000
  0.266379  0.000000  0.000000      4.000000
  0.332974  0.000000  0.000000      4.000000
  0.399569  0.000000  0.000000      4.000000
  0.466164  0.000000  0.000000      4.000000
  0.066595  0.066595  0.000000      4.000000
  0.133190  0.066595  0.000000      8.000000
  0.199785  0.066595  0.000000      8.000000
  0.266379  0.066595  0.000000      8.000000
  0.332974  0.066595  0.000000      8.000000
  0.399569  0.066595  0.000000      8.000000
  0.466164  0.066595  0.000000      8.000000
  0.133190  0.133190  0.000000      4.000000
  0.199785  0.133190  0.000000      8.000000
  0.266379  0.133190  0.000000      8.000000
  0.332974  0.133190  0.000000      8.000000
  0.399569  0.133190  0.000000      8.000000
  0.466164  0.133190  0.000000      8.000000
  0.199785  0.199785  0.000000      4.000000
  0.266379  0.199785  0.000000      8.000000
  0.332974  0.199785  0.000000      8.000000
  0.399569  0.199785  0.000000      8.000000
  0.466164  0.199785  0.000000      8.000000
  0.266379  0.266379  0.000000      4.000000
  0.332974  0.266379  0.000000      8.000000
  0.399569  0.266379  0.000000      8.000000
  0.466164  0.266379  0.000000      8.000000
  0.332974  0.332974  0.000000      4.000000
  0.399569  0.332974  0.000000      8.000000
  0.466164  0.332974  0.000000      8.000000
  0.399569  0.399569  0.000000      4.000000
  0.466164  0.399569  0.000000      8.000000
  0.466164  0.466164  0.000000      4.000000
  0.000000  0.000000  0.066609      2.000000
  0.066595  0.000000  0.066609      8.000000
  0.133190  0.000000  0.066609      8.000000
  0.199785  0.000000  0.066609      8.000000
  0.266379  0.000000  0.066609      8.000000
  0.332974  0.000000  0.066609      8.000000
  0.399569  0.000000  0.066609      8.000000
  0.466164  0.000000  0.066609      8.000000
  0.066595  0.066595  0.066609      8.000000
  0.133190  0.066595  0.066609     16.000000
  0.199785  0.066595  0.066609     16.000000
  0.266379  0.066595  0.066609     16.000000
  0.332974  0.066595  0.066609     16.000000
  0.399569  0.066595  0.066609     16.000000
  0.466164  0.066595  0.066609     16.000000
  0.133190  0.133190  0.066609      8.000000
  0.199785  0.133190  0.066609     16.000000
  0.266379  0.133190  0.066609     16.000000
  0.332974  0.133190  0.066609     16.000000
  0.399569  0.133190  0.066609     16.000000
  0.466164  0.133190  0.066609     16.000000
  0.199785  0.199785  0.066609      8.000000
  0.266379  0.199785  0.066609     16.000000
  0.332974  0.199785  0.066609     16.000000
  0.399569  0.199785  0.066609     16.000000
  0.466164  0.199785  0.066609     16.000000
  0.266379  0.266379  0.066609      8.000000
  0.332974  0.266379  0.066609     16.000000
  0.399569  0.266379  0.066609     16.000000
  0.466164  0.266379  0.066609     16.000000
  0.332974  0.332974  0.066609      8.000000
  0.399569  0.332974  0.066609     16.000000
  0.466164  0.332974  0.066609     16.000000
  0.399569  0.399569  0.066609      8.000000
  0.466164  0.399569  0.066609     16.000000
  0.466164  0.466164  0.066609      8.000000
  0.000000  0.000000  0.133218      2.000000
  0.066595  0.000000  0.133218      8.000000
  0.133190  0.000000  0.133218      8.000000
  0.199785  0.000000  0.133218      8.000000
  0.266379  0.000000  0.133218      8.000000
  0.332974  0.000000  0.133218      8.000000
  0.399569  0.000000  0.133218      8.000000
  0.466164  0.000000  0.133218      8.000000
  0.066595  0.066595  0.133218      8.000000
  0.133190  0.066595  0.133218     16.000000
  0.199785  0.066595  0.133218     16.000000
  0.266379  0.066595  0.133218     16.000000
  0.332974  0.066595  0.133218     16.000000
  0.399569  0.066595  0.133218     16.000000
  0.466164  0.066595  0.133218     16.000000
  0.133190  0.133190  0.133218      8.000000
  0.199785  0.133190  0.133218     16.000000
  0.266379  0.133190  0.133218     16.000000
  0.332974  0.133190  0.133218     16.000000
  0.399569  0.133190  0.133218     16.000000
  0.466164  0.133190  0.133218     16.000000
  0.199785  0.199785  0.133218      8.000000
  0.266379  0.199785  0.133218     16.000000
  0.332974  0.199785  0.133218     16.000000
  0.399569  0.199785  0.133218     16.000000
  0.466164  0.199785  0.133218     16.000000
  0.266379  0.266379  0.133218      8.000000
  0.332974  0.266379  0.133218     16.000000
  0.399569  0.266379  0.133218     16.000000
  0.466164  0.266379  0.133218     16.000000
  0.332974  0.332974  0.133218      8.000000
  0.399569  0.332974  0.133218     16.000000
  0.466164  0.332974  0.133218     16.000000
  0.399569  0.399569  0.133218      8.000000
  0.466164  0.399569  0.133218     16.000000
  0.466164  0.466164  0.133218      8.000000
  0.000000  0.000000  0.199827      2.000000
  0.066595  0.000000  0.199827      8.000000
  0.133190  0.000000  0.199827      8.000000
  0.199785  0.000000  0.199827      8.000000
  0.266379  0.000000  0.199827      8.000000
  0.332974  0.000000  0.199827      8.000000
  0.399569  0.000000  0.199827      8.000000
  0.466164  0.000000  0.199827      8.000000
  0.066595  0.066595  0.199827      8.000000
  0.133190  0.066595  0.199827     16.000000
  0.199785  0.066595  0.199827     16.000000
  0.266379  0.066595  0.199827     16.000000
  0.332974  0.066595  0.199827     16.000000
  0.399569  0.066595  0.199827     16.000000
  0.466164  0.066595  0.199827     16.000000
  0.133190  0.133190  0.199827      8.000000
  0.199785  0.133190  0.199827     16.000000
  0.266379  0.133190  0.199827     16.000000
  0.332974  0.133190  0.199827     16.000000
  0.399569  0.133190  0.199827     16.000000
  0.466164  0.133190  0.199827     16.000000
  0.199785  0.199785  0.199827      8.000000
  0.266379  0.199785  0.199827     16.000000
  0.332974  0.199785  0.199827     16.000000
  0.399569  0.199785  0.199827     16.000000
  0.466164  0.199785  0.199827     16.000000
  0.266379  0.266379  0.199827      8.000000
  0.332974  0.266379  0.199827     16.000000
  0.399569  0.266379  0.199827     16.000000
  0.466164  0.266379  0.199827     16.000000
  0.332974  0.332974  0.199827      8.000000
  0.399569  0.332974  0.199827     16.000000
  0.466164  0.332974  0.199827     16.000000
  0.399569  0.399569  0.199827      8.000000
  0.466164  0.399569  0.199827     16.000000
  0.466164  0.466164  0.199827      8.000000
  0.000000  0.000000  0.266436      2.000000
  0.066595  0.000000  0.266436      8.000000
  0.133190  0.000000  0.266436      8.000000
  0.199785  0.000000  0.266436      8.000000
  0.266379  0.000000  0.266436      8.000000
  0.332974  0.000000  0.266436      8.000000
  0.399569  0.000000  0.266436      8.000000
  0.466164  0.000000  0.266436      8.000000
  0.066595  0.066595  0.266436      8.000000
  0.133190  0.066595  0.266436     16.000000
  0.199785  0.066595  0.266436     16.000000
  0.266379  0.066595  0.266436     16.000000
  0.332974  0.066595  0.266436     16.000000
  0.399569  0.066595  0.266436     16.000000
  0.466164  0.066595  0.266436     16.000000
  0.133190  0.133190  0.266436      8.000000
  0.199785  0.133190  0.266436     16.000000
  0.266379  0.133190  0.266436     16.000000
  0.332974  0.133190  0.266436     16.000000
  0.399569  0.133190  0.266436     16.000000
  0.466164  0.133190  0.266436     16.000000
  0.199785  0.199785  0.266436      8.000000
  0.266379  0.199785  0.266436     16.000000
  0.332974  0.199785  0.266436     16.000000
  0.399569  0.199785  0.266436     16.000000
  0.466164  0.199785  0.266436     16.000000
  0.266379  0.266379  0.266436      8.000000
  0.332974  0.266379  0.266436     16.000000
  0.399569  0.266379  0.266436     16.000000
  0.466164  0.266379  0.266436     16.000000
  0.332974  0.332974  0.266436      8.000000
  0.399569  0.332974  0.266436     16.000000
  0.466164  0.332974  0.266436     16.000000
  0.399569  0.399569  0.266436      8.000000
  0.466164  0.399569  0.266436     16.000000
  0.466164  0.466164  0.266436      8.000000
  0.000000  0.000000  0.333044      2.000000
  0.066595  0.000000  0.333044      8.000000
  0.133190  0.000000  0.333044      8.000000
  0.199785  0.000000  0.333044      8.000000
  0.266379  0.000000  0.333044      8.000000
  0.332974  0.000000  0.333044      8.000000
  0.399569  0.000000  0.333044      8.000000
  0.466164  0.000000  0.333044      8.000000
  0.066595  0.066595  0.333044      8.000000
  0.133190  0.066595  0.333044     16.000000
  0.199785  0.066595  0.333044     16.000000
  0.266379  0.066595  0.333044     16.000000
  0.332974  0.066595  0.333044     16.000000
  0.399569  0.066595  0.333044     16.000000
  0.466164  0.066595  0.333044     16.000000
  0.133190  0.133190  0.333044      8.000000
  0.199785  0.133190  0.333044     16.000000
  0.266379  0.133190  0.333044     16.000000
  0.332974  0.133190  0.333044     16.000000
  0.399569  0.133190  0.333044     16.000000
  0.466164  0.133190  0.333044     16.000000
  0.199785  0.199785  0.333044      8.000000
  0.266379  0.199785  0.333044     16.000000
  0.332974  0.199785  0.333044     16.000000
  0.399569  0.199785  0.333044     16.000000
  0.466164  0.199785  0.333044     16.000000
  0.266379  0.266379  0.333044      8.000000
  0.332974  0.266379  0.333044     16.000000
  0.399569  0.266379  0.333044     16.000000
  0.466164  0.266379  0.333044     16.000000
  0.332974  0.332974  0.333044      8.000000
  0.399569  0.332974  0.333044     16.000000
  0.466164  0.332974  0.333044     16.000000
  0.399569  0.399569  0.333044      8.000000
  0.466164  0.399569  0.333044     16.000000
  0.466164  0.466164  0.333044      8.000000
  0.000000  0.000000  0.399653      2.000000
  0.066595  0.000000  0.399653      8.000000
  0.133190  0.000000  0.399653      8.000000
  0.199785  0.000000  0.399653      8.000000
  0.266379  0.000000  0.399653      8.000000
  0.332974  0.000000  0.399653      8.000000
  0.399569  0.000000  0.399653      8.000000
  0.466164  0.000000  0.399653      8.000000
  0.066595  0.066595  0.399653      8.000000
  0.133190  0.066595  0.399653     16.000000
  0.199785  0.066595  0.399653     16.000000
  0.266379  0.066595  0.399653     16.000000
  0.332974  0.066595  0.399653     16.000000
  0.399569  0.066595  0.399653     16.000000
  0.466164  0.066595  0.399653     16.000000
  0.133190  0.133190  0.399653      8.000000
  0.199785  0.133190  0.399653     16.000000
  0.266379  0.133190  0.399653     16.000000
  0.332974  0.133190  0.399653     16.000000
  0.399569  0.133190  0.399653     16.000000
  0.466164  0.133190  0.399653     16.000000
  0.199785  0.199785  0.399653      8.000000
  0.266379  0.199785  0.399653     16.000000
  0.332974  0.199785  0.399653     16.000000
  0.399569  0.199785  0.399653     16.000000
  0.466164  0.199785  0.399653     16.000000
  0.266379  0.266379  0.399653      8.000000
  0.332974  0.266379  0.399653     16.000000
  0.399569  0.266379  0.399653     16.000000
  0.466164  0.266379  0.399653     16.000000
  0.332974  0.332974  0.399653      8.000000
  0.399569  0.332974  0.399653     16.000000
  0.466164  0.332974  0.399653     16.000000
  0.399569  0.399569  0.399653      8.000000
  0.466164  0.399569  0.399653     16.000000
  0.466164  0.466164  0.399653      8.000000
  0.000000  0.000000  0.466262      2.000000
  0.066595  0.000000  0.466262      8.000000
  0.133190  0.000000  0.466262      8.000000
  0.199785  0.000000  0.466262      8.000000
  0.266379  0.000000  0.466262      8.000000
  0.332974  0.000000  0.466262      8.000000
  0.399569  0.000000  0.466262      8.000000
  0.466164  0.000000  0.466262      8.000000
  0.066595  0.066595  0.466262      8.000000
  0.133190  0.066595  0.466262     16.000000
  0.199785  0.066595  0.466262     16.000000
  0.266379  0.066595  0.466262     16.000000
  0.332974  0.066595  0.466262     16.000000
  0.399569  0.066595  0.466262     16.000000
  0.466164  0.066595  0.466262     16.000000
  0.133190  0.133190  0.466262      8.000000
  0.199785  0.133190  0.466262     16.000000
  0.266379  0.133190  0.466262     16.000000
  0.332974  0.133190  0.466262     16.000000
  0.399569  0.133190  0.466262     16.000000
  0.466164  0.133190  0.466262     16.000000
  0.199785  0.199785  0.466262      8.000000
  0.266379  0.199785  0.466262     16.000000
  0.332974  0.199785  0.466262     16.000000
  0.399569  0.199785  0.466262     16.000000
  0.466164  0.199785  0.466262     16.000000
  0.266379  0.266379  0.466262      8.000000
  0.332974  0.266379  0.466262     16.000000
  0.399569  0.266379  0.466262     16.000000
  0.466164  0.266379  0.466262     16.000000
  0.332974  0.332974  0.466262      8.000000
  0.399569  0.332974  0.466262     16.000000
  0.466164  0.332974  0.466262     16.000000
  0.399569  0.399569  0.466262      8.000000
  0.466164  0.399569  0.466262     16.000000
  0.466164  0.466164  0.466262      8.000000
 


--------------------------------------------------------------------------------------------------------




 Dimension of arrays:
   k-points           NKPTS =    288   k-points in BZ     NKDIM =    288   number of bands    NBANDS=    150
   number of dos      NEDOS =   1500   number of ions     NIONS =     16
   non local maximal  LDIM  =      6   non local SUM 2l+1 LMDIM =     18
   total plane-waves  NPLWV =  74088
   max r-space proj   IRMAX =   5239   max aug-charges    IRDMAX= 117369
   dimension x,y,z NGX =    42 NGY =   42 NGZ =   42
   dimension x,y,z NGXF=    84 NGYF=   84 NGZF=   84
   support grid    NGXF=   168 NGYF=  168 NGZF=  168
   ions per type =               8   4   4
   NGX,Y,Z   is equivalent  to a cutoff of  12.11, 12.11, 12.11 a.u.
   NGXF,Y,Z  is equivalent  to a cutoff of  24.22, 24.22, 24.22 a.u.

 SYSTEM =  NiCoMnGa                                
 POSCAR =  Heusler tetragonGa                      

 Startparameter for this run:
   NWRITE =      2    write-flag & timer
   PREC   = accura    normal or accurate (medium, high low for compatibility)
   ISTART =      0    job   : 0-new  1-cont  2-samecut
   ICHARG =      2    charge: 1-file 2-atom 10-const
   ISPIN  =      2    spin polarized calculation?
   LNONCOLLINEAR =      F non collinear calculations
   LSORBIT =      F    spin-orbit coupling
   INIWAV =      1    electr: 0-lowe 1-rand  2-diag
   LASPH  =      F    aspherical Exc in radial PAW
   METAGGA=      F    non-selfconsistent MetaGGA calc.

 Electronic Relaxation 1
   ENCUT  =  500.0 eV  36.75 Ry    6.06 a.u.  10.51 10.51 10.51*2*pi/ulx,y,z
   ENINI  =  500.0     initial cutoff
   ENAUG  =  578.3 eV  augmentation charge cutoff
   NELM   =    160;   NELMIN=  2; NELMDL= -6     # of ELM steps 
   EDIFF  = 0.1E-05   stopping-criterion for ELM
   LREAL  =      T    real-space projection
   NLSPLINE    = F    spline interpolate recip. space projectors
   LCOMPAT=      F    compatible to vasp.4.4
   GGA_COMPAT  = T    GGA compatible to vasp.4.4-vasp.4.6
   LMAXPAW     = -100 max onsite density
   LMAXMIX     =    6 max onsite mixed and CHGCAR
   VOSKOWN=      0    Vosko Wilk Nusair interpolation
   ROPT   =   -0.00025  -0.00025  -0.00025
 Ionic relaxation
   EDIFFG = -.1E-02   stopping-criterion for IOM
   NSW    =      0    number of steps for IOM
   NBLOCK =      1;   KBLOCK =      1    inner block; outer block 
   IBRION =     -1    ionic relax: 0-MD 1-quasi-New 2-CG
   NFREE  =      1    steps in history (QN), initial steepest desc. (CG)
   ISIF   =      3    stress and relaxation
   IWAVPR =     10    prediction:  0-non 1-charg 2-wave 3-comb
   ISYM   =      2    0-nonsym 1-usesym 2-fastsym
   LCORR  =      T    Harris-Foulkes like correction to forces

   POTIM  = 0.0100    time-step for ionic-motion
   TEIN   =    0.0    initial temperature
   TEBEG  =    0.0;   TEEND  =   0.0 temperature during run
   SMASS  =  -3.00    Nose mass-parameter (am)
   estimated Nose-frequenzy (Omega)   =  0.10E-29 period in steps = 0.63E+48 mass=  -0.760E-27a.u.
   SCALEE = 1.0000    scale energy and forces
   NPACO  =    256;   APACO  = 16.0  distance and # of slots for P.C.
   PSTRESS=    0.0 pullay stress

  Mass of Ions in am
   POMASS =  55.85 58.93 69.72
  Ionic Valenz
   ZVAL   =  14.00 15.00 13.00
  Atomic Wigner-Seitz radii
   RWIGS  =   1.16  1.16  1.16
  virtual crystal weights 
   VCA    =   1.00  1.00  1.00
   NELECT =     224.0000    total number of electrons
   NUPDOWN=      -1.0000    fix difference up-down

 DOS related values:
   EMIN   =  10.00;   EMAX   =-10.00  energy-range for DOS
   EFERMI =   0.00
   ISMEAR =     1;   SIGMA  =   0.10  broadening in eV -4-tet -1-fermi 0-gaus

 Electronic relaxation 2 (details)
   IALGO  =     38    algorithm
   LDIAG  =      T    sub-space diagonalisation (order eigenvalues)
   LSUBROT=      F    optimize rotation matrix (better conditioning)
   TURBO    =      0    0=normal 1=particle mesh
   IRESTART =      0    0=no restart 2=restart with 2 vectors
   NREBOOT  =      0    no. of reboots
   NMIN     =      0    reboot dimension
   EREF     =   0.00    reference energy to select bands
   IMIX   =      4    mixing-type and parameters
     AMIX     =   0.18;   BMIX     =  0.00
     AMIX_MAG =   0.26;   BMIX_MAG =  0.01
     AMIN     =   0.10
     WC   =   100.;   INIMIX=   1;  MIXPRE=   1;  MAXMIX= -45

 Intra band minimization:
   WEIMIN = 0.0000     energy-eigenvalue tresh-hold
   EBREAK =  0.17E-08  absolut break condition
   DEPER  =   0.30     relativ break condition  

   TIME   =   0.40     timestep for ELM

  volume/ion in A,a.u.               =      11.98        80.85
  Fermi-wavevector in a.u.,A,eV,Ry     =   1.724372  3.258590 40.456342  2.973457
  Thomas-Fermi vector in A             =   2.800073
 
 Write flags
   LWAVE        =      F    write WAVECAR
   LDOWNSAMPLE  =      F    k-point downsampling of WAVECAR
   LCHARG       =      T    write CHGCAR
   LVTOT        =      F    write LOCPOT, total local potential
   LVHAR        =      F    write LOCPOT, Hartree potential only
   LELF         =      F    write electronic localiz. function (ELF)
   LORBIT       =     10    0 simple, 1 ext, 2 COOP (PROOUT), +10 PAW based schemes


 Dipole corrections
   LMONO  =      F    monopole corrections only (constant potential shift)
   LDIPOL =      F    correct potential (dipole corrections)
   IDIPOL =      0    1-x, 2-y, 3-z, 4-all directions 
   EPSILON=  1.0000000 bulk dielectric constant

 Exchange correlation treatment:
   GGA     =    --    GGA type
   LEXCH   =     8    internal setting for exchange type
   VOSKOWN=      0    Vosko Wilk Nusair interpolation
   LHFCALC =     F    Hartree Fock is set to
   LHFONE  =     F    Hartree Fock one center treatment
   AEXX    =    0.0000 exact exchange contribution

 Linear response parameters
   LEPSILON=     F    determine dielectric tensor
   LRPA    =     F    only Hartree local field effects (RPA)
   LNABLA  =     F    use nabla operator in PAW spheres
   LVEL    =     F    velocity operator in full k-point grid
   LINTERFAST=   F  fast interpolation
   KINTER  =     0    interpolate to denser k-point grid
   CSHIFT  =0.1000    complex shift for real part using Kramers Kronig
   OMEGAMAX=  -1.0    maximum frequency
   DEG_THRESHOLD= 0.2000000E-02 threshold for treating states as degnerate
   RTIME   =   -0.100 relaxation time in fs
  (WPLASMAI=    0.000 imaginary part of plasma frequency in eV, 0.658/RTIME)
   DFIELD  = 0.0000000 0.0000000 0.0000000 field for delta impulse in time
 
 Orbital magnetization related:
   ORBITALMAG=     F  switch on orbital magnetization
   LCHIMAG   =     F  perturbation theory with respect to B field
   DQ        =  0.001000  dq finite difference perturbation B field
   LLRAUG    =     F  two centre corrections for induced B field



--------------------------------------------------------------------------------------------------------


 Static calculation
 charge density and potential will be updated during run
 spin polarized calculation
 Variant of blocked Davidson
 Davidson routine will perform the subspace rotation
 perform sub-space diagonalisation
    after iterative eigenvector-optimisation
 modified Broyden-mixing scheme, WC =      100.0
 initial mixing is a Kerker type mixing with AMIX =  0.1800 and BMIX =      0.0025
 Hartree-type preconditioning will be used
 using additional bands           38
 real space projection scheme for non local part
 use partial core corrections
 calculate Harris-corrections to forces 
   (improved forces if not selfconsistent)
 use gradient corrections 
 use of overlap-Matrix (Vanderbilt PP)
 Methfessel and Paxton  Order N= 1 SIGMA  =   0.10


--------------------------------------------------------------------------------------------------------


  energy-cutoff  :      500.00
  volume of cell :      191.68
      direct lattice vectors                 reciprocal lattice vectors
     5.766209705  0.000000000  0.000000000     0.173424147  0.000000000  0.000000000
     0.000000000  5.766209705  0.000000000     0.000000000  0.173424147  0.000000000
     0.000000000  0.000000000  5.764997053     0.000000000  0.000000000  0.173460626

  length of vectors
     5.766209705  5.766209705  5.764997053     0.173424147  0.173424147  0.173460626


 
 k-points in units of 2pi/SCALE and weight: Ni7CoMn5CrSn2                           
   0.00000000  0.00000000  0.00000000       0.000
   0.06659487  0.00000000  0.00000000       0.001
   0.13318974  0.00000000  0.00000000       0.001
   0.19978462  0.00000000  0.00000000       0.001
   0.26637949  0.00000000  0.00000000       0.001
   0.33297436  0.00000000  0.00000000       0.001
   0.39956923  0.00000000  0.00000000       0.001
   0.46616411  0.00000000  0.00000000       0.001
   0.06659487  0.06659487  0.00000000       0.001
   0.13318974  0.06659487  0.00000000       0.002
   0.19978462  0.06659487  0.00000000       0.002
   0.26637949  0.06659487  0.00000000       0.002
   0.33297436  0.06659487  0.00000000       0.002
   0.39956923  0.06659487  0.00000000       0.002
   0.46616411  0.06659487  0.00000000       0.002
   0.13318974  0.13318974  0.00000000       0.001
   0.19978462  0.13318974  0.00000000       0.002
   0.26637949  0.13318974  0.00000000       0.002
   0.33297436  0.13318974  0.00000000       0.002
   0.39956923  0.13318974  0.00000000       0.002
   0.46616411  0.13318974  0.00000000       0.002
   0.19978462  0.19978462  0.00000000       0.001
   0.26637949  0.19978462  0.00000000       0.002
   0.33297436  0.19978462  0.00000000       0.002
   0.39956923  0.19978462  0.00000000       0.002
   0.46616411  0.19978462  0.00000000       0.002
   0.26637949  0.26637949  0.00000000       0.001
   0.33297436  0.26637949  0.00000000       0.002
   0.39956923  0.26637949  0.00000000       0.002
   0.46616411  0.26637949  0.00000000       0.002
   0.33297436  0.33297436  0.00000000       0.001
   0.39956923  0.33297436  0.00000000       0.002
   0.46616411  0.33297436  0.00000000       0.002
   0.39956923  0.39956923  0.00000000       0.001
   0.46616411  0.39956923  0.00000000       0.002
   0.46616411  0.46616411  0.00000000       0.001
   0.00000000  0.00000000  0.06660888       0.001
   0.06659487  0.00000000  0.06660888       0.002
   0.13318974  0.00000000  0.06660888       0.002
   0.19978462  0.00000000  0.06660888       0.002
   0.26637949  0.00000000  0.06660888       0.002
   0.33297436  0.00000000  0.06660888       0.002
   0.39956923  0.00000000  0.06660888       0.002
   0.46616411  0.00000000  0.06660888       0.002
   0.06659487  0.06659487  0.06660888       0.002
   0.13318974  0.06659487  0.06660888       0.005
   0.19978462  0.06659487  0.06660888       0.005
   0.26637949  0.06659487  0.06660888       0.005
   0.33297436  0.06659487  0.06660888       0.005
   0.39956923  0.06659487  0.06660888       0.005
   0.46616411  0.06659487  0.06660888       0.005
   0.13318974  0.13318974  0.06660888       0.002
   0.19978462  0.13318974  0.06660888       0.005
   0.26637949  0.13318974  0.06660888       0.005
   0.33297436  0.13318974  0.06660888       0.005
   0.39956923  0.13318974  0.06660888       0.005
   0.46616411  0.13318974  0.06660888       0.005
   0.19978462  0.19978462  0.06660888       0.002
   0.26637949  0.19978462  0.06660888       0.005
   0.33297436  0.19978462  0.06660888       0.005
   0.39956923  0.19978462  0.06660888       0.005
   0.46616411  0.19978462  0.06660888       0.005
   0.26637949  0.26637949  0.06660888       0.002
   0.33297436  0.26637949  0.06660888       0.005
   0.39956923  0.26637949  0.06660888       0.005
   0.46616411  0.26637949  0.06660888       0.005
   0.33297436  0.33297436  0.06660888       0.002
   0.39956923  0.33297436  0.06660888       0.005
   0.46616411  0.33297436  0.06660888       0.005
   0.39956923  0.39956923  0.06660888       0.002
   0.46616411  0.39956923  0.06660888       0.005
   0.46616411  0.46616411  0.06660888       0.002
   0.00000000  0.00000000  0.13321776       0.001
   0.06659487  0.00000000  0.13321776       0.002
   0.13318974  0.00000000  0.13321776       0.002
   0.19978462  0.00000000  0.13321776       0.002
   0.26637949  0.00000000  0.13321776       0.002
   0.33297436  0.00000000  0.13321776       0.002
   0.39956923  0.00000000  0.13321776       0.002
   0.46616411  0.00000000  0.13321776       0.002
   0.06659487  0.06659487  0.13321776       0.002
   0.13318974  0.06659487  0.13321776       0.005
   0.19978462  0.06659487  0.13321776       0.005
   0.26637949  0.06659487  0.13321776       0.005
   0.33297436  0.06659487  0.13321776       0.005
   0.39956923  0.06659487  0.13321776       0.005
   0.46616411  0.06659487  0.13321776       0.005
   0.13318974  0.13318974  0.13321776       0.002
   0.19978462  0.13318974  0.13321776       0.005
   0.26637949  0.13318974  0.13321776       0.005
   0.33297436  0.13318974  0.13321776       0.005
   0.39956923  0.13318974  0.13321776       0.005
   0.46616411  0.13318974  0.13321776       0.005
   0.19978462  0.19978462  0.13321776       0.002
   0.26637949  0.19978462  0.13321776       0.005
   0.33297436  0.19978462  0.13321776       0.005
   0.39956923  0.19978462  0.13321776       0.005
   0.46616411  0.19978462  0.13321776       0.005
   0.26637949  0.26637949  0.13321776       0.002
   0.33297436  0.26637949  0.13321776       0.005
   0.39956923  0.26637949  0.13321776       0.005
   0.46616411  0.26637949  0.13321776       0.005
   0.33297436  0.33297436  0.13321776       0.002
   0.39956923  0.33297436  0.13321776       0.005
   0.46616411  0.33297436  0.13321776       0.005
   0.39956923  0.39956923  0.13321776       0.002
   0.46616411  0.39956923  0.13321776       0.005
   0.46616411  0.46616411  0.13321776       0.002
   0.00000000  0.00000000  0.19982664       0.001
   0.06659487  0.00000000  0.19982664       0.002
   0.13318974  0.00000000  0.19982664       0.002
   0.19978462  0.00000000  0.19982664       0.002
   0.26637949  0.00000000  0.19982664       0.002
   0.33297436  0.00000000  0.19982664       0.002
   0.39956923  0.00000000  0.19982664       0.002
   0.46616411  0.00000000  0.19982664       0.002
   0.06659487  0.06659487  0.19982664       0.002
   0.13318974  0.06659487  0.19982664       0.005
   0.19978462  0.06659487  0.19982664       0.005
   0.26637949  0.06659487  0.19982664       0.005
   0.33297436  0.06659487  0.19982664       0.005
   0.39956923  0.06659487  0.19982664       0.005
   0.46616411  0.06659487  0.19982664       0.005
   0.13318974  0.13318974  0.19982664       0.002
   0.19978462  0.13318974  0.19982664       0.005
   0.26637949  0.13318974  0.19982664       0.005
   0.33297436  0.13318974  0.19982664       0.005
   0.39956923  0.13318974  0.19982664       0.005
   0.46616411  0.13318974  0.19982664       0.005
   0.19978462  0.19978462  0.19982664       0.002
   0.26637949  0.19978462  0.19982664       0.005
   0.33297436  0.19978462  0.19982664       0.005
   0.39956923  0.19978462  0.19982664       0.005
   0.46616411  0.19978462  0.19982664       0.005
   0.26637949  0.26637949  0.19982664       0.002
   0.33297436  0.26637949  0.19982664       0.005
   0.39956923  0.26637949  0.19982664       0.005
   0.46616411  0.26637949  0.19982664       0.005
   0.33297436  0.33297436  0.19982664       0.002
   0.39956923  0.33297436  0.19982664       0.005
   0.46616411  0.33297436  0.19982664       0.005
   0.39956923  0.39956923  0.19982664       0.002
   0.46616411  0.39956923  0.19982664       0.005
   0.46616411  0.46616411  0.19982664       0.002
   0.00000000  0.00000000  0.26643552       0.001
   0.06659487  0.00000000  0.26643552       0.002
   0.13318974  0.00000000  0.26643552       0.002
   0.19978462  0.00000000  0.26643552       0.002
   0.26637949  0.00000000  0.26643552       0.002
   0.33297436  0.00000000  0.26643552       0.002
   0.39956923  0.00000000  0.26643552       0.002
   0.46616411  0.00000000  0.26643552       0.002
   0.06659487  0.06659487  0.26643552       0.002
   0.13318974  0.06659487  0.26643552       0.005
   0.19978462  0.06659487  0.26643552       0.005
   0.26637949  0.06659487  0.26643552       0.005
   0.33297436  0.06659487  0.26643552       0.005
   0.39956923  0.06659487  0.26643552       0.005
   0.46616411  0.06659487  0.26643552       0.005
   0.13318974  0.13318974  0.26643552       0.002
   0.19978462  0.13318974  0.26643552       0.005
   0.26637949  0.13318974  0.26643552       0.005
   0.33297436  0.13318974  0.26643552       0.005
   0.39956923  0.13318974  0.26643552       0.005
   0.46616411  0.13318974  0.26643552       0.005
   0.19978462  0.19978462  0.26643552       0.002
   0.26637949  0.19978462  0.26643552       0.005
   0.33297436  0.19978462  0.26643552       0.005
   0.39956923  0.19978462  0.26643552       0.005
   0.46616411  0.19978462  0.26643552       0.005
   0.26637949  0.26637949  0.26643552       0.002
   0.33297436  0.26637949  0.26643552       0.005
   0.39956923  0.26637949  0.26643552       0.005
   0.46616411  0.26637949  0.26643552       0.005
   0.33297436  0.33297436  0.26643552       0.002
   0.39956923  0.33297436  0.26643552       0.005
   0.46616411  0.33297436  0.26643552       0.005
   0.39956923  0.39956923  0.26643552       0.002
   0.46616411  0.39956923  0.26643552       0.005
   0.46616411  0.46616411  0.26643552       0.002
   0.00000000  0.00000000  0.33304440       0.001
   0.06659487  0.00000000  0.33304440       0.002
   0.13318974  0.00000000  0.33304440       0.002
   0.19978462  0.00000000  0.33304440       0.002
   0.26637949  0.00000000  0.33304440       0.002
   0.33297436  0.00000000  0.33304440       0.002
   0.39956923  0.00000000  0.33304440       0.002
   0.46616411  0.00000000  0.33304440       0.002
   0.06659487  0.06659487  0.33304440       0.002
   0.13318974  0.06659487  0.33304440       0.005
   0.19978462  0.06659487  0.33304440       0.005
   0.26637949  0.06659487  0.33304440       0.005
   0.33297436  0.06659487  0.33304440       0.005
   0.39956923  0.06659487  0.33304440       0.005
   0.46616411  0.06659487  0.33304440       0.005
   0.13318974  0.13318974  0.33304440       0.002
   0.19978462  0.13318974  0.33304440       0.005
   0.26637949  0.13318974  0.33304440       0.005
   0.33297436  0.13318974  0.33304440       0.005
   0.39956923  0.13318974  0.33304440       0.005
   0.46616411  0.13318974  0.33304440       0.005
   0.19978462  0.19978462  0.33304440       0.002
   0.26637949  0.19978462  0.33304440       0.005
   0.33297436  0.19978462  0.33304440       0.005
   0.39956923  0.19978462  0.33304440       0.005
   0.46616411  0.19978462  0.33304440       0.005
   0.26637949  0.26637949  0.33304440       0.002
   0.33297436  0.26637949  0.33304440       0.005
   0.39956923  0.26637949  0.33304440       0.005
   0.46616411  0.26637949  0.33304440       0.005
   0.33297436  0.33297436  0.33304440       0.002
   0.39956923  0.33297436  0.33304440       0.005
   0.46616411  0.33297436  0.33304440       0.005
   0.39956923  0.39956923  0.33304440       0.002
   0.46616411  0.39956923  0.33304440       0.005
   0.46616411  0.46616411  0.33304440       0.002
   0.00000000  0.00000000  0.39965328       0.001
   0.06659487  0.00000000  0.39965328       0.002
   0.13318974  0.00000000  0.39965328       0.002
   0.19978462  0.00000000  0.39965328       0.002
   0.26637949  0.00000000  0.39965328       0.002
   0.33297436  0.00000000  0.39965328       0.002
   0.39956923  0.00000000  0.39965328       0.002
   0.46616411  0.00000000  0.39965328       0.002
   0.06659487  0.06659487  0.39965328       0.002
   0.13318974  0.06659487  0.39965328       0.005
   0.19978462  0.06659487  0.39965328       0.005
   0.26637949  0.06659487  0.39965328       0.005
   0.33297436  0.06659487  0.39965328       0.005
   0.39956923  0.06659487  0.39965328       0.005
   0.46616411  0.06659487  0.39965328       0.005
   0.13318974  0.13318974  0.39965328       0.002
   0.19978462  0.13318974  0.39965328       0.005
   0.26637949  0.13318974  0.39965328       0.005
   0.33297436  0.13318974  0.39965328       0.005
   0.39956923  0.13318974  0.39965328       0.005
   0.46616411  0.13318974  0.39965328       0.005
   0.19978462  0.19978462  0.39965328       0.002
   0.26637949  0.19978462  0.39965328       0.005
   0.33297436  0.19978462  0.39965328       0.005
   0.39956923  0.19978462  0.39965328       0.005
   0.46616411  0.19978462  0.39965328       0.005
   0.26637949  0.26637949  0.39965328       0.002
   0.33297436  0.26637949  0.39965328       0.005
   0.39956923  0.26637949  0.39965328       0.005
   0.46616411  0.26637949  0.39965328       0.005
   0.33297436  0.33297436  0.39965328       0.002
   0.39956923  0.33297436  0.39965328       0.005
   0.46616411  0.33297436  0.39965328       0.005
   0.39956923  0.39956923  0.39965328       0.002
   0.46616411  0.39956923  0.39965328       0.005
   0.46616411  0.46616411  0.39965328       0.002
   0.00000000  0.00000000  0.46626216       0.001
   0.06659487  0.00000000  0.46626216       0.002
   0.13318974  0.00000000  0.46626216       0.002
   0.19978462  0.00000000  0.46626216       0.002
   0.26637949  0.00000000  0.46626216       0.002
   0.33297436  0.00000000  0.46626216       0.002
   0.39956923  0.00000000  0.46626216       0.002
   0.46616411  0.00000000  0.46626216       0.002
   0.06659487  0.06659487  0.46626216       0.002
   0.13318974  0.06659487  0.46626216       0.005
   0.19978462  0.06659487  0.46626216       0.005
   0.26637949  0.06659487  0.46626216       0.005
   0.33297436  0.06659487  0.46626216       0.005
   0.39956923  0.06659487  0.46626216       0.005
   0.46616411  0.06659487  0.46626216       0.005
   0.13318974  0.13318974  0.46626216       0.002
   0.19978462  0.13318974  0.46626216       0.005
   0.26637949  0.13318974  0.46626216       0.005
   0.33297436  0.13318974  0.46626216       0.005
   0.39956923  0.13318974  0.46626216       0.005
   0.46616411  0.13318974  0.46626216       0.005
   0.19978462  0.19978462  0.46626216       0.002
   0.26637949  0.19978462  0.46626216       0.005
   0.33297436  0.19978462  0.46626216       0.005
   0.39956923  0.19978462  0.46626216       0.005
   0.46616411  0.19978462  0.46626216       0.005
   0.26637949  0.26637949  0.46626216       0.002
   0.33297436  0.26637949  0.46626216       0.005
   0.39956923  0.26637949  0.46626216       0.005
   0.46616411  0.26637949  0.46626216       0.005
   0.33297436  0.33297436  0.46626216       0.002
   0.39956923  0.33297436  0.46626216       0.005
   0.46616411  0.33297436  0.46626216       0.005
   0.39956923  0.39956923  0.46626216       0.002
   0.46616411  0.39956923  0.46626216       0.005
   0.46616411  0.46616411  0.46626216       0.002
 
 k-points in reciprocal lattice and weights: Ni7CoMn5CrSn2                           
   0.00000000  0.00000000  0.00000000       0.000
   0.06666667  0.00000000  0.00000000       0.001
   0.13333333  0.00000000  0.00000000       0.001
   0.20000000  0.00000000  0.00000000       0.001
   0.26666667  0.00000000  0.00000000       0.001
   0.33333333  0.00000000  0.00000000       0.001
   0.40000000  0.00000000  0.00000000       0.001
   0.46666667  0.00000000  0.00000000       0.001
   0.06666667  0.06666667  0.00000000       0.001
   0.13333333  0.06666667  0.00000000       0.002
   0.20000000  0.06666667  0.00000000       0.002
   0.26666667  0.06666667  0.00000000       0.002
   0.33333333  0.06666667  0.00000000       0.002
   0.40000000  0.06666667  0.00000000       0.002
   0.46666667  0.06666667  0.00000000       0.002
   0.13333333  0.13333333  0.00000000       0.001
   0.20000000  0.13333333  0.00000000       0.002
   0.26666667  0.13333333  0.00000000       0.002
   0.33333333  0.13333333  0.00000000       0.002
   0.40000000  0.13333333  0.00000000       0.002
   0.46666667  0.13333333  0.00000000       0.002
   0.20000000  0.20000000  0.00000000       0.001
   0.26666667  0.20000000  0.00000000       0.002
   0.33333333  0.20000000  0.00000000       0.002
   0.40000000  0.20000000  0.00000000       0.002
   0.46666667  0.20000000  0.00000000       0.002
   0.26666667  0.26666667  0.00000000       0.001
   0.33333333  0.26666667  0.00000000       0.002
   0.40000000  0.26666667  0.00000000       0.002
   0.46666667  0.26666667  0.00000000       0.002
   0.33333333  0.33333333  0.00000000       0.001
   0.40000000  0.33333333  0.00000000       0.002
   0.46666667  0.33333333  0.00000000       0.002
   0.40000000  0.40000000  0.00000000       0.001
   0.46666667  0.40000000  0.00000000       0.002
   0.46666667  0.46666667  0.00000000       0.001
   0.00000000  0.00000000  0.06666667       0.001
   0.06666667  0.00000000  0.06666667       0.002
   0.13333333  0.00000000  0.06666667       0.002
   0.20000000  0.00000000  0.06666667       0.002
   0.26666667  0.00000000  0.06666667       0.002
   0.33333333  0.00000000  0.06666667       0.002
   0.40000000  0.00000000  0.06666667       0.002
   0.46666667  0.00000000  0.06666667       0.002
   0.06666667  0.06666667  0.06666667       0.002
   0.13333333  0.06666667  0.06666667       0.005
   0.20000000  0.06666667  0.06666667       0.005
   0.26666667  0.06666667  0.06666667       0.005
   0.33333333  0.06666667  0.06666667       0.005
   0.40000000  0.06666667  0.06666667       0.005
   0.46666667  0.06666667  0.06666667       0.005
   0.13333333  0.13333333  0.06666667       0.002
   0.20000000  0.13333333  0.06666667       0.005
   0.26666667  0.13333333  0.06666667       0.005
   0.33333333  0.13333333  0.06666667       0.005
   0.40000000  0.13333333  0.06666667       0.005
   0.46666667  0.13333333  0.06666667       0.005
   0.20000000  0.20000000  0.06666667       0.002
   0.26666667  0.20000000  0.06666667       0.005
   0.33333333  0.20000000  0.06666667       0.005
   0.40000000  0.20000000  0.06666667       0.005
   0.46666667  0.20000000  0.06666667       0.005
   0.26666667  0.26666667  0.06666667       0.002
   0.33333333  0.26666667  0.06666667       0.005
   0.40000000  0.26666667  0.06666667       0.005
   0.46666667  0.26666667  0.06666667       0.005
   0.33333333  0.33333333  0.06666667       0.002
   0.40000000  0.33333333  0.06666667       0.005
   0.46666667  0.33333333  0.06666667       0.005
[...]
    140      15.0672      0.00000
    141      15.0690      0.00000
    142      15.1066      0.00000
    143      15.1077      0.00000
    144      15.1077      0.00000
    145      17.5247      0.00000
    146      17.6140      0.00000
    147      17.6140      0.00000
    148      17.6141      0.00000
    149      22.2632      0.00000
    150      22.2655      0.00000


--------------------------------------------------------------------------------------------------------


 soft charge-density along one line, spin component           1
         0         1         2         3         4         5         6         7         8         9
 total charge-density along one line
 
 soft charge-density along one line, spin component           2
         0         1         2         3         4         5         6         7         8         9
 total charge-density along one line
 
 pseudopotential strength for first ion, spin component:           1
-45.221  -0.000   0.000   7.701   0.000  -0.000  -0.000   0.000
 -0.000 -45.221  -0.000   0.000   7.701   0.000  -0.010   0.000
  0.000  -0.000 -45.221  -0.000   0.000   7.701   0.000  -0.010
  7.701   0.000  -0.000   5.617   0.000  -0.000   0.000  -0.000
  0.000   7.701   0.000   0.000   5.617   0.000   0.005  -0.000
 -0.000   0.000   7.701  -0.000   0.000   5.617  -0.000   0.005
 -0.000  -0.010   0.000   0.000   0.005  -0.000  -2.335  -0.000
  0.000   0.000  -0.010  -0.000  -0.000   0.005  -0.000  -2.335
 -0.000   0.000   0.000   0.000  -0.000  -0.000  -0.000   0.000
 -0.010  -0.000   0.000   0.005   0.000  -0.000  -0.000   0.000
 -0.000   0.000  -0.000   0.000  -0.000   0.000   0.000   0.000
 -0.000  -0.010   0.000   0.000   0.005  -0.000  -2.846  -0.000
  0.000   0.000  -0.010  -0.000  -0.000   0.005  -0.000  -2.846
 -0.000   0.000   0.000   0.000  -0.000  -0.000  -0.000   0.000
 -0.010  -0.000   0.000   0.005   0.000  -0.000  -0.000   0.000
 -0.000   0.000  -0.000   0.000  -0.000   0.000   0.000   0.000
 -0.000  -0.000   0.000  -0.000  -0.000   0.000  -0.000   0.000
 -0.000  -0.000   0.000  -0.000  -0.000   0.000  -0.000   0.000
 pseudopotential strength for first ion, spin component:           2
-43.325  -0.000   0.000   6.903   0.000  -0.000  -0.000   0.000
 -0.000 -43.325  -0.000   0.000   6.903   0.000   0.009   0.000
  0.000  -0.000 -43.325  -0.000   0.000   6.903   0.000   0.009
  6.903   0.000  -0.000   5.842   0.000  -0.000   0.000  -0.000
  0.000   6.903   0.000   0.000   5.842   0.000  -0.004  -0.000
 -0.000   0.000   6.903  -0.000   0.000   5.842  -0.000  -0.004
 -0.000   0.009   0.000   0.000  -0.004  -0.000  -0.766  -0.000
  0.000   0.000   0.009  -0.000  -0.000  -0.004  -0.000  -0.766
 -0.000   0.000   0.000   0.000  -0.000  -0.000  -0.000   0.000
  0.009  -0.000   0.000  -0.004   0.000  -0.000  -0.000   0.000
 -0.000   0.000  -0.000   0.000  -0.000   0.000   0.000   0.000
 -0.000   0.009   0.000   0.000  -0.005  -0.000  -1.302  -0.000
  0.000   0.000   0.009  -0.000  -0.000  -0.005  -0.000  -1.302
 -0.000   0.000   0.000   0.000  -0.000  -0.000  -0.000   0.000
  0.009  -0.000   0.000  -0.005   0.000  -0.000  -0.000   0.000
 -0.000   0.000  -0.000   0.000  -0.000   0.000   0.000   0.000
 -0.000  -0.000   0.000  -0.000  -0.000   0.000  -0.000   0.000
 -0.000  -0.000   0.000  -0.000  -0.000   0.000  -0.000   0.000
 total augmentation occupancy for first ion, spin component:           1
  1.993  -0.000   0.000  -0.023   0.000   0.000  -0.000   0.000  -0.000   0.002   0.000   0.000   0.000  -0.000  -0.002   0.000
 -0.000   1.993  -0.000   0.000  -0.023  -0.000   0.002   0.000  -0.000   0.000   0.000  -0.002  -0.000   0.000   0.000  -0.000
  0.000  -0.000   1.993   0.000  -0.000  -0.023   0.000   0.002   0.000  -0.000   0.000   0.000  -0.002  -0.000  -0.000   0.000
 -0.023   0.000   0.000   0.181   0.000   0.000  -0.000  -0.000  -0.000   0.031  -0.000   0.000  -0.000   0.000  -0.006   0.000
  0.000  -0.023  -0.000   0.000   0.181  -0.000   0.031   0.000   0.000   0.000   0.000  -0.006  -0.000  -0.000  -0.000   0.000
 -0.000  -0.000  -0.023   0.000  -0.000   0.181  -0.000   0.031   0.000  -0.000  -0.000   0.000  -0.006  -0.000   0.000  -0.000
  0.000   0.002  -0.000   0.000   0.031  -0.000   2.376   0.000   0.000   0.000   0.000  -1.391  -0.000   0.000  -0.000   0.000
  0.000   0.000   0.002  -0.000  -0.000   0.031   0.000   2.377   0.000   0.000   0.000   0.000  -1.391  -0.000  -0.000   0.000
  0.000   0.000   0.000   0.000   0.000   0.000  -0.000   0.000   2.587   0.000   0.000   0.000   0.000  -1.463   0.000   0.000
  0.002   0.000  -0.000   0.031  -0.000   0.000   0.000  -0.000   0.000   2.377  -0.000   0.000   0.000  -0.000  -1.391  -0.000
  0.000  -0.000   0.000  -0.000  -0.000   0.000  -0.000  -0.000   0.000  -0.000   2.588  -0.000  -0.000   0.000   0.000  -1.464
 -0.000  -0.002   0.000  -0.000  -0.006  -0.000  -1.391   0.000   0.000  -0.000  -0.000   1.765   0.000  -0.000   0.000  -0.000
 -0.000   0.000  -0.002  -0.000   0.000  -0.006   0.000  -1.391   0.000  -0.000   0.000   0.000   1.765  -0.000   0.000  -0.000
 -0.000  -0.000   0.000   0.000   0.000   0.000   0.000  -0.000  -1.463   0.000  -0.000  -0.000   0.000   1.663  -0.000   0.000
 -0.002  -0.000   0.000  -0.006   0.000  -0.000   0.000   0.000  -0.000  -1.391   0.000  -0.000  -0.000   0.000   1.765   0.000
  0.000  -0.000  -0.000   0.000  -0.000   0.000   0.000   0.000   0.000  -0.000  -1.464  -0.000   0.000  -0.000   0.000   1.663
  0.000  -0.000  -0.000   0.000   0.000   0.000   0.000   0.000  -0.000   0.000  -0.000   0.000  -0.000   0.000   0.000  -0.000
  0.000   0.000   0.000   0.000   0.000   0.000   0.000  -0.000  -0.000   0.000   0.000   0.000   0.000   0.000  -0.000   0.000
 total augmentation occupancy for first ion, spin component:           2
 -0.002  -0.000   0.000  -0.008   0.000  -0.000   0.000   0.000  -0.000   0.007   0.000  -0.000   0.000  -0.000  -0.008   0.000
 -0.000  -0.002  -0.000  -0.000  -0.008  -0.000   0.007   0.000   0.000   0.000  -0.000  -0.008  -0.000  -0.000   0.000   0.000
  0.000  -0.000  -0.002   0.000  -0.000  -0.008  -0.000   0.007  -0.000   0.000  -0.000   0.000  -0.008   0.000   0.000  -0.000
 -0.008   0.000   0.000  -0.004   0.000   0.000   0.000   0.000  -0.000  -0.037   0.000  -0.000   0.000   0.000   0.001  -0.000
  0.000  -0.008  -0.000  -0.000  -0.004   0.000  -0.037  -0.000  -0.000   0.000   0.000   0.001   0.000   0.000  -0.000   0.000
 -0.000  -0.000  -0.008   0.000  -0.000  -0.004   0.000  -0.037   0.000  -0.000   0.000   0.000   0.001   0.000   0.000   0.000
  0.000   0.007  -0.000  -0.000  -0.037  -0.000   1.495  -0.000   0.000   0.000  -0.000  -0.417   0.000   0.000   0.000  -0.000
  0.000  -0.000   0.007  -0.000   0.000  -0.037   0.000   1.496  -0.000   0.000   0.000   0.000  -0.417  -0.000   0.000   0.000
  0.000  -0.000   0.000  -0.000   0.000   0.000  -0.000  -0.000   1.984  -0.000   0.000  -0.000  -0.000  -0.730   0.000   0.000
  0.007  -0.000  -0.000  -0.037   0.000  -0.000   0.000  -0.000  -0.000   1.496  -0.000  -0.000  -0.000   0.000  -0.417   0.000
  0.000  -0.000   0.000   0.000   0.000  -0.000  -0.000  -0.000   0.000  -0.000   1.985  -0.000  -0.000  -0.000  -0.000  -0.730
 -0.000  -0.008   0.000  -0.000   0.001  -0.000  -0.417  -0.000  -0.000   0.000   0.000  -0.152   0.000  -0.000   0.000  -0.000
  0.000   0.000  -0.008   0.000   0.000   0.001   0.000  -0.417  -0.000   0.000  -0.000   0.000  -0.151  -0.000   0.000  -0.000
 -0.000   0.000   0.000   0.000  -0.000  -0.000  -0.000  -0.000  -0.730  -0.000  -0.000  -0.000   0.000   0.047  -0.000   0.000
 -0.008   0.000  -0.000   0.001  -0.000  -0.000  -0.000  -0.000   0.000  -0.417   0.000  -0.000   0.000  -0.000  -0.151  -0.000
  0.000  -0.000   0.000   0.000  -0.000   0.000   0.000   0.000   0.000   0.000  -0.730   0.000   0.000   0.000  -0.000   0.047
  0.000   0.000   0.000   0.000   0.000   0.000  -0.000  -0.000  -0.000   0.000   0.000   0.000  -0.000   0.000   0.000  -0.000
 -0.000   0.000   0.000  -0.000   0.000  -0.000   0.000   0.000  -0.000   0.000  -0.000   0.000   0.000   0.000   0.000  -0.000


------------------------ aborting loop because EDIFF is reached ----------------------------------------





 total charge

# of ion       s       p       d       tot
------------------------------------------
    1        0.331   6.338   6.142  12.811
    2        0.331   6.338   6.142  12.811
    3        0.331   6.338   6.142  12.811
    4        0.331   6.338   6.142  12.811
    5        0.331   6.338   6.142  12.811
    6        0.331   6.338   6.142  12.811
    7        0.331   6.338   6.142  12.811
    8        0.331   6.338   6.142  12.811
    9        0.468   6.472   7.242  14.182
   10        0.468   6.472   7.242  14.182
   11        0.468   6.472   7.242  14.182
   12        0.468   6.472   7.242  14.182
   13        0.872   0.923  10.036  11.832
   14        0.872   0.923  10.036  11.832
   15        0.872   0.923  10.036  11.832
   16        0.872   0.923  10.036  11.832
--------------------------------------------------
tot          8.006  80.286 118.251 206.543



 magnetization (x)

# of ion       s       p       d       tot
------------------------------------------
    1        0.006  -0.010   2.248   2.244
    2        0.006  -0.010   2.248   2.244
    3        0.006  -0.010   2.248   2.244
    4        0.006  -0.010   2.248   2.244
    5        0.006  -0.010   2.248   2.244
    6        0.006  -0.010   2.248   2.244
    7        0.006  -0.010   2.248   2.244
    8        0.006  -0.010   2.248   2.244
    9       -0.022  -0.042   1.818   1.754
   10       -0.022  -0.042   1.818   1.754
   11       -0.022  -0.042   1.818   1.754
   12       -0.022  -0.042   1.818   1.754
   13       -0.011  -0.062  -0.003  -0.076
   14       -0.011  -0.062  -0.003  -0.076
   15       -0.011  -0.062  -0.003  -0.076
   16       -0.011  -0.062  -0.003  -0.076
--------------------------------------------------
tot         -0.088  -0.493  25.242  24.660
 
    CHARGE:  cpu time    3.8762: real time    3.8882
    FORLOC:  cpu time    0.0040: real time    0.0035
    FORNL :  cpu time   34.4542: real time   34.5596
    STRESS:  cpu time  103.1664: real time  103.4872
    FORCOR:  cpu time    0.0440: real time    0.0458
    FORHAR:  cpu time    0.0080: real time    0.0066
    MIXING:  cpu time    0.0000: real time    0.0016
    OFIELD:  cpu time    0.0000: real time    0.0001

  FORCE on cell =-STRESS in cart. coord.  units (eV):
  Direction    XX          YY          ZZ          XY          YZ          ZX
  --------------------------------------------------------------------------------------
  Alpha Z  1814.88359  1814.88359  1814.88359
  Ewald   -9512.58903 -9512.58903 -9512.27207    -0.00000     0.00000     0.00000
  Hartree  2960.85095  2960.85095  2961.05289    -0.00000    -0.00000    -0.00000
  E(xc)   -1430.28945 -1430.28945 -1430.28904    -0.00000    -0.00000    -0.00000
  Local    2378.19590  2378.19590  2377.67718    -0.00000     0.00000    -0.00000
  n-local  -323.53276  -322.12534  -322.82485    -0.68029    -1.21438    -0.14107
  augment  2211.78581  2211.78581  2211.78231     0.00000     0.00004     0.00004
  Kinetic  1896.07117  1903.25787  1899.65629    -2.89036    -2.83339    -2.96256
  Fock        0.00000     0.00000     0.00000     0.00000     0.00000     0.00000
  -------------------------------------------------------------------------------------
  Total      -0.32676    -0.32676    -0.33370     0.00000     0.00000     0.00000
  in kB      -2.73127    -2.73127    -2.78927     0.00000     0.00000     0.00000
  external pressure =       -2.75 kB  Pullay stress =        0.00 kB


 VOLUME and BASIS-vectors are now :
 -----------------------------------------------------------------------------
  energy-cutoff  :      500.00
  volume of cell :      191.68
      direct lattice vectors                 reciprocal lattice vectors
     5.766209705  0.000000000  0.000000000     0.173424147  0.000000000  0.000000000
     0.000000000  5.766209705  0.000000000     0.000000000  0.173424147  0.000000000
     0.000000000  0.000000000  5.764997053     0.000000000  0.000000000  0.173460626

  length of vectors
     5.766209705  5.766209705  5.764997053     0.173424147  0.173424147  0.173460626


 FORCES acting on ions
    electron-ion (+dipol)            ewald-force                    non-local-force                 convergence-correction
 -----------------------------------------------------------------------------------------------
   0.115E-11 0.444E-11 -.297E-11   -.114E-12 -.284E-13 -.853E-13   -.434E-18 0.651E-18 0.000E+00   -.259E-12 0.252E-13 -.168E-12
   0.291E-12 -.826E-12 0.630E-12   -.568E-13 -.114E-12 -.568E-13   0.434E-18 -.108E-16 -.217E-18   -.290E-13 0.199E-13 -.106E-12
   0.205E-11 0.676E-11 0.229E-11   0.000E+00 -.114E-12 -.568E-13   0.434E-18 -.737E-17 -.217E-18   0.113E-12 -.123E-12 -.589E-13
   0.298E-11 0.983E-11 0.144E-10   -.568E-13 -.284E-13 -.853E-13   0.000E+00 0.152E-17 0.000E+00   -.176E-12 0.187E-12 -.128E-12
   0.271E-12 0.745E-12 0.237E-11   -.568E-13 -.114E-12 0.284E-13   0.434E-18 -.997E-17 -.217E-18   -.271E-13 -.143E-12 0.520E-12
   0.298E-11 0.186E-10 0.557E-11   -.568E-13 -.284E-13 0.000E+00   -.434E-18 -.217E-18 0.000E+00   -.133E-12 0.471E-13 0.477E-12
   0.115E-11 0.219E-11 -.103E-11   -.853E-13 -.284E-13 0.000E+00   0.347E-17 -.217E-18 0.000E+00   -.280E-12 0.174E-12 0.459E-12
   0.206E-11 0.126E-10 0.808E-11   0.000E+00 -.114E-12 0.284E-13   0.390E-17 -.824E-17 -.217E-18   0.730E-13 0.139E-13 0.594E-12
   0.186E-11 -.370E-14 -.309E-10   0.120E-12 0.287E-13 0.804E-14   0.620E-24 0.414E-24 0.000E+00   -.478E-12 -.511E-13 0.622E-12
   0.237E-13 0.183E-11 -.246E-12   0.621E-13 0.705E-13 0.823E-14   0.103E-24 -.207E-24 0.000E+00   0.519E-12 -.617E-13 0.600E-12
   0.227E-13 -.282E-14 0.177E-11   0.851E-13 0.507E-13 -.257E-13   0.827E-24 -.414E-24 -.103E-24   0.505E-12 -.338E-13 -.254E-12
   0.185E-11 0.108E-10 -.762E-11   0.861E-13 0.640E-13 -.255E-13   0.672E-24 -.207E-24 -.129E-25   -.439E-12 -.996E-13 -.231E-12
   0.112E-11 -.217E-13 -.312E-11   0.593E-13 0.128E-12 0.948E-13   0.000E+00 0.517E-23 0.000E+00   -.328E-12 0.549E-13 -.251E-12
   -.138E-13 0.111E-11 0.111E-11   -.109E-15 0.143E-12 0.663E-13   0.290E-23 0.000E+00 -.165E-23   0.504E-12 0.405E-13 -.238E-12
   0.111E-11 0.164E-11 -.139E-10   0.371E-13 0.118E-12 0.925E-13   0.000E+00 -.827E-24 0.000E+00   -.295E-12 -.716E-14 0.500E-12
   -.158E-13 -.230E-13 -.134E-12   0.608E-14 0.106E-12 -.497E-13   0.248E-23 0.496E-23 0.165E-23   0.477E-12 0.453E-13 0.491E-12
 -----------------------------------------------------------------------------------------------
   0.189E-10 0.696E-10 -.237E-10   0.296E-13 0.141E-12 -.584E-13   0.781E-17 -.347E-16 -.867E-18   -.253E-12 0.888E-13 0.283E-11
 
 
 POSITION                                       TOTAL-FORCE (eV/Angst)
 -----------------------------------------------------------------------------------
      1.44155      1.44155      1.44125         0.000000      0.000000     -0.000000
      1.44155      4.32466      1.44125        -0.000000     -0.000000      0.000000
      4.32466      1.44155      1.44125         0.000000      0.000000     -0.000000
      4.32466      4.32466      1.44125         0.000000      0.000000     -0.000000
      1.44155      1.44155      4.32375        -0.000000      0.000000     -0.000000
      4.32466      1.44155      4.32375         0.000000     -0.000000      0.000000
      1.44155      4.32466      4.32375        -0.000000      0.000000     -0.000000
      4.32466      4.32466      4.32375        -0.000000     -0.000000      0.000000
      2.88310      0.00000      0.00000        -0.000000     -0.000000     -0.000000
      0.00000      2.88310      0.00000        -0.000000     -0.000000      0.000000
      0.00000      0.00000      2.88250        -0.000000     -0.000000     -0.000000
      2.88310      2.88310      2.88250        -0.000000     -0.000000      0.000000
      2.88310      0.00000      2.88250        -0.000000     -0.000000      0.000000
      0.00000      2.88310      2.88250        -0.000000     -0.000000     -0.000000
      2.88310      2.88310      0.00000        -0.000000     -0.000000     -0.000000
      0.00000      0.00000      0.00000        -0.000000     -0.000000      0.000000
 -----------------------------------------------------------------------------------
    total drift:                                0.000000      0.000000     -0.000000


--------------------------------------------------------------------------------------------------------



  FREE ENERGIE OF THE ION-ELECTRON SYSTEM (eV)
  ---------------------------------------------------
  free  energy   TOTEN  =      -106.49389884 eV

  energy  without entropy=     -106.48480232  energy(sigma->0) =     -106.49086667
 


--------------------------------------------------------------------------------------------------------


    POTLOK:  cpu time    0.1480: real time    0.1477


--------------------------------------------------------------------------------------------------------


     LOOP+:  cpu time 3533.0248: real time 3544.7432
    4ORBIT:  cpu time    0.0000: real time    0.0000



 total charge

# of ion       s       p       d       tot
------------------------------------------
    1        0.331   6.338   6.142  12.811
    2        0.331   6.338   6.142  12.811
    3        0.331   6.338   6.142  12.811
    4        0.331   6.338   6.142  12.811
    5        0.331   6.338   6.142  12.811
    6        0.331   6.338   6.142  12.811
    7        0.331   6.338   6.142  12.811
    8        0.331   6.338   6.142  12.811
    9        0.468   6.472   7.242  14.182
   10        0.468   6.472   7.242  14.182
   11        0.468   6.472   7.242  14.182
   12        0.468   6.472   7.242  14.182
   13        0.872   0.923  10.036  11.832
   14        0.872   0.923  10.036  11.832
   15        0.872   0.923  10.036  11.832
   16        0.872   0.923  10.036  11.832
--------------------------------------------------
tot          8.006  80.286 118.251 206.543



 magnetization (x)

# of ion       s       p       d       tot
------------------------------------------
    1        0.006  -0.010   2.248   2.244
    2        0.006  -0.010   2.248   2.244
    3        0.006  -0.010   2.248   2.244
    4        0.006  -0.010   2.248   2.244
    5        0.006  -0.010   2.248   2.244
    6        0.006  -0.010   2.248   2.244
    7        0.006  -0.010   2.248   2.244
    8        0.006  -0.010   2.248   2.244
    9       -0.022  -0.042   1.818   1.754
   10       -0.022  -0.042   1.818   1.754
   11       -0.022  -0.042   1.818   1.754
   12       -0.022  -0.042   1.818   1.754
   13       -0.011  -0.062  -0.003  -0.076
   14       -0.011  -0.062  -0.003  -0.076
   15       -0.011  -0.062  -0.003  -0.076
   16       -0.011  -0.062  -0.003  -0.076
--------------------------------------------------
tot         -0.088  -0.493  25.242  24.660
 

 total amount of memory used by VASP MPI-rank0   404474. kBytes
=======================================================================

   base      :      30000. kBytes
   nonlr-proj:       4960. kBytes
   fftplans  :       5234. kBytes
   grid      :       4732. kBytes
   one-center:        124. kBytes
   wavefun   :     359424. kBytes
 
  
  
 General timing and accounting informations for this job:
 ========================================================
  
                  Total CPU time used (sec):     3580.024
                            User time (sec):     3568.823
                          System time (sec):       11.201
                         Elapsed time (sec):     3592.282
  
                   Maximum memory used (kb):      488096.
                   Average memory used (kb):          N/A
  
                          Minor page faults:       123633
                          Major page faults:            0
                 Voluntary context switches:         3560
