 vasp.6.2.0 18Jan21 (build Feb 24 2021 14:57:03) complex                        
  
 executed on             LinuxIFC date 2023.06.13  20:52:09
 running on   20 total cores
 distrk:  each k-point on   20 cores,    1 groups
 distr:  one band on NCORE=   4 cores,    5 groups


--------------------------------------------------------------------------------------------------------


 INCAR:
   SYSTEM = NiCoMnGa
   LCHARG = .TRUE.
   LWAVE = .FALSE.
   ICHARG = 2
   IBRION = 2
   ISIF = 3
   PREC = Accurate
   ENCUT = 500
   LREAL = A
   POTIM = 0.01
   EDIFF = 1e-6
   ISMEAR = 1
   SIGMA = 0.1
   ISPIN = 2
   LORBIT = 10
   ISYM = 2
   RWIGS = 8*1.164 4*1.302 4*1.217
   MAGMOM = 8*2.3 4*1.2 4*0
   NSW = 0
   NEDOS = 1500
   GGA_COMPAT = .TRUE.
   LMAXMIX = 6
   NELMDL = -6
   NELM = 160
   ADDGRID = .TRUE.
   NPAR = 6
   NCORE = 4
   AMIX = 0.18
   AMIX_MAG = 0.26
   BMIX = 0.0025
   BMIX_MAG = 0.005
   EDIFFG = 1E-3

 POTCAR:    PAW_PBE Fe_pv 02Aug2007               
 POTCAR:    PAW_PBE Co_pv 23Apr2009               
 POTCAR:     PAW_PBE Ga_d 06Jul2010               
 -----------------------------------------------------------------------------
|                                                                             |
|           W    W    AA    RRRRR   N    N  II  N    N   GGGG   !!!           |
|           W    W   A  A   R    R  NN   N  II  NN   N  G    G  !!!           |
|           W    W  A    A  R    R  N N  N  II  N N  N  G       !!!           |
|           W WW W  AAAAAA  RRRRR   N  N N  II  N  N N  G  GGG   !            |
|           WW  WW  A    A  R   R   N   NN  II  N   NN  G    G                |
|           W    W  A    A  R    R  N    N  II  N    N   GGGG   !!!           |
|                                                                             |
|     The value NPAR = 6 specified in the INCAR file was overwritten,         |
|     because it was not compatible with the 20 processes available:          |
|     NPAR = 5                                                                |
|     was used instead, please check that this makes sense for your           |
|     machine.                                                                |
|                                                                             |
 -----------------------------------------------------------------------------

 POTCAR:    PAW_PBE Fe_pv 02Aug2007               
   VRHFIN =Fe:  3pd7s1                                                                              
   LEXCH  = PE                                                                                      
   EATOM  =  2457.4239 eV,  180.6156 Ry                                                             
                                                                                                    
   TITEL  = PAW_PBE Fe_pv 02Aug2007                                                                 
   LULTRA =        F    use ultrasoft PP ?                                                          
   IUNSCR =        1    unscreen: 0-lin 1-nonlin 2-no                                               
   RPACOR =    1.750    partial core radius                                                         
   POMASS =   55.847; ZVAL   =   14.000    mass and valenz                                          
   RCORE  =    2.200    outmost cutoff radius                                                       
   RWIGS  =    2.200; RWIGS  =    1.164    wigner-seitz radius (au A)                               
   ENMAX  =  293.238; ENMIN  =  219.928 eV                                                          
   ICORE  =        3    local potential                                                             
   LCOR   =        T    correct aug charges                                                         
   LPAW   =        T    paw PP                                                                      
   EAUG   =  578.342                                                                                
   DEXC   =    0.000                                                                                
   RMAX   =    2.249    core radius for proj-oper                                                   
   RAUG   =    1.300    factor for augmentation sphere                                              
   RDEP   =    2.296    radius for radial grids                                                     
   RDEPT  =    1.766    core radius for aug-charge                                                  
                                                                                                    
   Atomic configuration                                                                             
    8 entries                                                                                       
     n  l   j            E        occ.                                                              
     1  0  0.50     -6993.8440   2.0000                                                             
     2  0  0.50      -814.6047   2.0000                                                             
     2  1  1.50      -693.3689   6.0000                                                             
     3  0  0.50       -89.4732   2.0000                                                             
     3  1  1.50       -55.6373   6.0000                                                             
     3  2  2.50        -3.8151   7.0000                                                             
     4  0  0.50        -4.2551   1.0000                                                             
     4  3  2.50        -1.3606   0.0000                                                             
   Description                                                                                      
     l       E           TYP  RCUT    TYP  RCUT                                                     
     1    -55.6372668     23  2.000                                                                 
     1     -5.4423304     23  2.000                                                                 
     2     -3.8151096     23  2.200                                                                 
     2     -5.1756922     23  2.200                                                                 
     0     -4.2550951     23  2.200                                                                 
     0     27.2116520     23  2.200                                                                 
     3     -1.3605826     23  2.200                                                                 
  local pseudopotential read in
  partial core-charges read in
  partial kinetic energy density read in
  atomic valenz-charges read in
  non local Contribution for L=           1  read in
    real space projection operators read in
  non local Contribution for L=           1  read in
    real space projection operators read in
  non local Contribution for L=           2  read in
    real space projection operators read in
  non local Contribution for L=           2  read in
    real space projection operators read in
  non local Contribution for L=           0  read in
    real space projection operators read in
  non local Contribution for L=           0  read in
    real space projection operators read in
    PAW grid and wavefunctions read in
 
   number of l-projection  operators is LMAX  =           6
   number of lm-projection operators is LMMAX =          18
 
 POTCAR:    PAW_PBE Co_pv 23Apr2009               
   VRHFIN =Co: 3pd7s1                                                                               
   LEXCH  = PE                                                                                      
   EATOM  =  2948.1334 eV,  216.6817 Ry                                                             
                                                                                                    
   TITEL  = PAW_PBE Co_pv 23Apr2009                                                                 
   LULTRA =        F    use ultrasoft PP ?                                                          
   IUNSCR =        1    unscreen: 0-lin 1-nonlin 2-no                                               
   RPACOR =    2.000    partial core radius                                                         
   POMASS =   58.933; ZVAL   =   15.000    mass and valenz                                          
   RCORE  =    2.300    outmost cutoff radius                                                       
   RWIGS  =    2.460; RWIGS  =    1.302    wigner-seitz radius (au A)                               
   ENMAX  =  271.042; ENMIN  =  203.281 eV                                                          
   ICORE  =        3    local potential                                                             
   LCOR   =        T    correct aug charges                                                         
   LPAW   =        T    paw PP                                                                      
   EAUG   =  543.066                                                                                
   DEXC   =    0.000                                                                                
   RMAX   =    2.360    core radius for proj-oper                                                   
   RAUG   =    1.300    factor for augmentation sphere                                              
   RDEP   =    2.393    radius for radial grids                                                     
   RDEPT  =    1.841    core radius for aug-charge                                                  
                                                                                                    
   Atomic configuration                                                                             
    8 entries                                                                                       
     n  l   j            E        occ.                                                              
     1  0  0.50     -7587.6674   2.0000                                                             
     2  0  0.50      -893.6084   2.0000                                                             
     2  1  1.50      -764.5805   6.0000                                                             
     3  0  0.50       -97.5973   2.0000                                                             
     3  1  1.50       -60.9648   6.0000                                                             
     3  2  2.50        -4.2382   8.0000                                                             
     4  0  0.50        -4.3746   1.0000                                                             
     4  3  2.50        -1.3606   0.0000                                                             
   Description                                                                                      
     l       E           TYP  RCUT    TYP  RCUT                                                     
     1    -60.9647990     23  2.000                                                                 
     1     -5.4423304     23  2.000                                                                 
     2     -4.2382362     23  2.300                                                                 
     2     -5.5988188     23  2.300                                                                 
     0     -4.3745797     23  2.300                                                                 
     0      5.7660125     23  2.300                                                                 
     3     -1.3605826     23  2.300                                                                 
  local pseudopotential read in
  partial core-charges read in
  partial kinetic energy density read in
  atomic valenz-charges read in
  non local Contribution for L=           1  read in
    real space projection operators read in
  non local Contribution for L=           1  read in
    real space projection operators read in
  non local Contribution for L=           2  read in
    real space projection operators read in
  non local Contribution for L=           2  read in
    real space projection operators read in
  non local Contribution for L=           0  read in
    real space projection operators read in
  non local Contribution for L=           0  read in
    real space projection operators read in
    PAW grid and wavefunctions read in
 
   number of l-projection  operators is LMAX  =           6
   number of lm-projection operators is LMMAX =          18
 
 POTCAR:     PAW_PBE Ga_d 06Jul2010               
   VRHFIN =Ga: s2p1                                                                                 
   LEXCH  = PE                                                                                      
   EATOM  =  2148.8298 eV,  157.9345 Ry                                                             
                                                                                                    
   TITEL  = PAW_PBE Ga_d 06Jul2010                                                                  
   LULTRA =        F    use ultrasoft PP ?                                                          
   IUNSCR =        1    unscreen: 0-lin 1-nonlin 2-no                                               
   RPACOR =    1.700    partial core radius                                                         
   POMASS =   69.723; ZVAL   =   13.000    mass and valenz                                          
   RCORE  =    2.300    outmost cutoff radius                                                       
   RWIGS  =    2.300; RWIGS  =    1.217    wigner-seitz radius (au A)                               
   ENMAX  =  282.691; ENMIN  =  212.018 eV                                                          
   ICORE  =        3    local potential                                                             
   LCOR   =        T    correct aug charges                                                         
   LPAW   =        T    paw PP                                                                      
   EAUG   =  490.690                                                                                
   DEXC   =    0.000                                                                                
   RMAX   =    2.341    core radius for proj-oper                                                   
   RAUG   =    1.300    factor for augmentation sphere                                              
   RDEP   =    2.413    radius for radial grids                                                     
   RDEPT  =    1.856    core radius for aug-charge                                                  
                                                                                                    
   Atomic configuration                                                                             
    9 entries                                                                                       
     n  l   j            E        occ.                                                              
     1  0  0.50    -10228.7831   2.0000                                                             
     2  0  0.50     -1262.1604   2.0000                                                             
     2  1  1.50     -1098.6333   6.0000                                                             
     3  0  0.50      -148.1110   2.0000                                                             
     3  1  1.50       -98.8436   6.0000                                                             
     3  2  2.50       -19.1549  10.0000                                                             
     4  0  0.50        -8.9483   2.0000                                                             
     4  1  0.50        -2.5791   1.0000                                                             
     4  3  2.50        -2.7416   0.0000                                                             
   Description                                                                                      
     l       E           TYP  RCUT    TYP  RCUT                                                     
     2    -19.1549037     23  2.300                                                                 
     2     -5.4423304     23  2.300                                                                 
     0     -8.9483111     23  2.300                                                                 
     0     68.0291300     23  2.300                                                                 
     1     -2.5790802     23  2.100                                                                 
     1     81.6349560     23  2.300                                                                 
     3      6.8029130     23  2.300                                                                 
  local pseudopotential read in
  partial core-charges read in
  partial kinetic energy density read in
  atomic valenz-charges read in
  non local Contribution for L=           2  read in
    real space projection operators read in
  non local Contribution for L=           2  read in
    real space projection operators read in
  non local Contribution for L=           0  read in
    real space projection operators read in
  non local Contribution for L=           0  read in
    real space projection operators read in
  non local Contribution for L=           1  read in
    real space projection operators read in
  non local Contribution for L=           1  read in
    real space projection operators read in
    PAW grid and wavefunctions read in
 
   number of l-projection  operators is LMAX  =           6
   number of lm-projection operators is LMMAX =          18
 
 Optimization of the real space projectors (new method)

 maximal supplied QI-value         = 17.01
 optimisation between [QCUT,QGAM] = [ 11.40, 22.79] = [ 36.36,145.44] Ry 
 Optimized for a Real-space Cutoff    1.47 Angstroem

   l    n(q)    QCUT    max X(q) W(low)/X(q) W(high)/X(q)  e(spline) 
   1     10    11.395     4.267    0.90E-04    0.11E-03    0.18E-06
   1     10    11.395     5.750    0.14E-03    0.15E-03    0.25E-06
   2      9    11.395    53.656    0.13E-03    0.36E-04    0.15E-06
   2      9    11.395    49.521    0.14E-03    0.36E-04    0.15E-06
   0     10    11.395    31.246    0.58E-04    0.17E-05    0.98E-07
   0     10    11.395    12.201    0.41E-04    0.11E-05    0.82E-07
 Optimization of the real space projectors (new method)

 maximal supplied QI-value         = 16.25
 optimisation between [QCUT,QGAM] = [ 11.38, 22.75] = [ 36.24,144.96] Ry 
 Optimized for a Real-space Cutoff    1.47 Angstroem

   l    n(q)    QCUT    max X(q) W(low)/X(q) W(high)/X(q)  e(spline) 
   1     10    11.376     4.946    0.88E-04    0.16E-03    0.15E-06
   1     10    11.376     5.991    0.13E-03    0.24E-03    0.21E-06
   2      9    11.376    46.947    0.87E-04    0.91E-04    0.20E-06
   2      9    11.376    42.928    0.91E-04    0.94E-04    0.20E-06
   0     10    11.376    68.324    0.58E-04    0.21E-04    0.82E-07
   0     10    11.376    36.926    0.52E-04    0.19E-04    0.78E-07
 Optimization of the real space projectors (new method)

 maximal supplied QI-value         = 16.25
 optimisation between [QCUT,QGAM] = [ 11.38, 22.75] = [ 36.24,144.96] Ry 
 Optimized for a Real-space Cutoff    1.43 Angstroem

   l    n(q)    QCUT    max X(q) W(low)/X(q) W(high)/X(q)  e(spline) 
   2      9    11.376     7.143    0.28E-04    0.12E-03    0.13E-06
   2      9    11.376     5.586    0.74E-04    0.22E-03    0.21E-06
   0     10    11.376    12.382    0.35E-04    0.14E-04    0.32E-07
   0     10    11.376     6.622    0.55E-04    0.29E-04    0.68E-07
   1      9    11.376     7.935    0.24E-03    0.22E-03    0.14E-06
   1      9    11.376     2.425    0.20E-03    0.19E-03    0.14E-06
  PAW_PBE Fe_pv 02Aug2007               :
 energy of atom  1       EATOM=-2457.4239
 kinetic energy error for atom=    0.0069 (will be added to EATOM!!)
  PAW_PBE Co_pv 23Apr2009               :
 energy of atom  2       EATOM=-2948.1334
 kinetic energy error for atom=    0.0060 (will be added to EATOM!!)
   PAW_PBE Ga_d 06Jul2010               :
 energy of atom  3       EATOM=-2148.8298
 kinetic energy error for atom=    0.0026 (will be added to EATOM!!)
 
 
 POSCAR: Heusler tetragonal
  positions in direct lattice
  velocities in cartesian coordinates
 exchange correlation table for  LEXCH =        8
   RHO(1)=    0.500       N(1)  =     2000
   RHO(2)=  100.500       N(2)  =     4000
 


--------------------------------------------------------------------------------------------------------


 ion  position               nearest neighbor table
   1  0.500  0.000  0.500-   5 2.48   6 2.48   7 2.48   8 2.48  13 2.50  14 2.50  15 2.50  16 2.50

   2  0.500  0.000  0.000-   5 2.48   6 2.48   7 2.48   8 2.48  13 2.50  14 2.50  15 2.50  16 2.50

   3  0.000  0.000  0.500-   7 2.48   5 2.48   8 2.48   6 2.48  13 2.48  14 2.48  15 2.48  16 2.48

   4  0.500  0.500  0.000-   6 2.48   5 2.48   8 2.48   7 2.48  13 2.48  14 2.48  15 2.48  16 2.48

   5  0.251  0.249  0.750-   1 2.48   2 2.48   3 2.48   4 2.48  10 2.48  12 2.48  11 2.49   9 2.49

   6  0.251  0.751  0.250-   1 2.48   2 2.48   4 2.48  12 2.48  10 2.48   3 2.48  11 2.49   9 2.49

   7  0.749  0.249  0.250-   1 2.48   2 2.48   3 2.48  10 2.48   4 2.48  12 2.48  11 2.49   9 2.49

   8  0.749  0.751  0.750-   1 2.48   2 2.48   3 2.48   4 2.48  10 2.48  12 2.48  11 2.49   9 2.49

   9  0.000  0.500  0.500-  13 2.47  14 2.47  15 2.47  16 2.47   8 2.49   7 2.49   6 2.49   5 2.49

  10  0.000  0.000  0.000-   7 2.48   5 2.48   8 2.48   6 2.48  13 2.48  14 2.48  15 2.48  16 2.48

  11  0.000  0.500  0.000-  13 2.47  14 2.47  15 2.47  16 2.47   8 2.49   7 2.49   6 2.49   5 2.49

  12  0.500  0.500  0.500-   6 2.48   5 2.48   8 2.48   7 2.48  13 2.48  14 2.48  15 2.48  16 2.48

  13  0.247  0.253  0.250-   9 2.47  11 2.47   3 2.48  10 2.48   4 2.48  12 2.48   1 2.50   2 2.50

  14  0.753  0.253  0.750-   9 2.47  11 2.47   3 2.48  10 2.48   4 2.48  12 2.48   1 2.50   2 2.50

  15  0.247  0.747  0.750-   9 2.47  11 2.47   3 2.48  10 2.48   4 2.48  12 2.48   1 2.50   2 2.50

  16  0.753  0.747  0.250-   9 2.47  11 2.47   3 2.48  10 2.48   4 2.48  12 2.48   1 2.50   2 2.50

 
  LATTYP: Found a simple tetragonal cell.
 ALAT       =     5.7295900845
 C/A-ratio  =     1.0044778146
  
  Lattice vectors:
  
 A1 = (   5.7295900845,   0.0000000000,   0.0000000000)
 A2 = (   0.0000000000,   5.7295900845,   0.0000000000)
 A3 = (   0.0000000000,   0.0000000000,   5.7552461266)


Analysis of symmetry for initial positions (statically):
=====================================================================
 Subroutine PRICEL returns:
 Original cell was already a primitive cell.
 

 Routine SETGRP: Setting up the symmetry group for a 
 simple tetragonal supercell.


 Subroutine GETGRP returns: Found  8 space group operations
 (whereof  4 operations were pure point group operations)
 out of a pool of 16 trial point group operations.


The static configuration has the point symmetry D_2 .
 The point group associated with its full space group is D_4 .


Analysis of symmetry for dynamics (positions and initial velocities):
=====================================================================
 Subroutine PRICEL returns:
 Original cell was already a primitive cell.
 

 Routine SETGRP: Setting up the symmetry group for a 
 simple tetragonal supercell.


 Subroutine GETGRP returns: Found  8 space group operations
 (whereof  4 operations were pure point group operations)
 out of a pool of 16 trial point group operations.


The dynamic configuration has the point symmetry D_2 .
 The point group associated with its full space group is D_4 .


Analysis of structural, dynamic, and magnetic symmetry:
=====================================================================
 Subroutine PRICEL returns:
 Original cell was already a primitive cell.
 

 Routine SETGRP: Setting up the symmetry group for a 
 simple tetragonal supercell.


 Subroutine GETGRP returns: Found  8 space group operations
 (whereof  4 operations were pure point group operations)
 out of a pool of 16 trial point group operations.


The overall configuration has the point symmetry D_2 .
 The point group associated with its full space group is D_4 .


 Subroutine INISYM returns: Found  8 space group operations
 (whereof  4 operations are pure point group operations),
 and found     1 'primitive' translations


----------------------------------------------------------------------------------------

                                     Primitive cell                                     

  volume of cell :     188.9344

  direct lattice vectors                    reciprocal lattice vectors
     5.729590084  0.000000000  0.000000000     0.174532556  0.000000000  0.000000000
     0.000000000  5.729590084  0.000000000     0.000000000  0.174532556  0.000000000
     0.000000000  0.000000000  5.755246127     0.000000000  0.000000000  0.173754515

  length of vectors
     5.729590084  5.729590084  5.755246127     0.174532556  0.174532556  0.173754515

  position of ions in fractional coordinates (direct lattice)
     0.500000000  0.000000000  0.500000000
     0.500000000  0.000000000  0.000000000
     0.000000000  0.000000000  0.500000000
     0.500000000  0.500000000  0.000000000
     0.250662736  0.249337264  0.750000000
     0.250662736  0.750662736  0.250000000
     0.749337264  0.249337264  0.250000000
     0.749337264  0.750662736  0.750000000
     0.000000000  0.500000000  0.500000000
     0.000000000  0.000000000  0.000000000
     0.000000000  0.500000000  0.000000000
     0.500000000  0.500000000  0.500000000
     0.247061230  0.252938770  0.250000000
     0.752938770  0.252938770  0.750000000
     0.247061230  0.747061230  0.750000000
     0.752938770  0.747061230  0.250000000

  ion indices of the primitive-cell ions
   primitive index   ion index
                 1           1
                 2           2
                 3           3
                 4           4
                 5           5
                 6           6
                 7           7
                 8           8
                 9           9
                10          10
                11          11
                12          12
                13          13
                14          14
                15          15
                16          16

----------------------------------------------------------------------------------------

 
 
 KPOINTS: Ni7CoMn5CrSn2                           

Automatic generation of k-mesh.
 Grid dimensions read from file:
 generate k-points for:   15   15   15

 Generating k-lattice:

  Cartesian coordinates                     Fractional coordinates (reciprocal lattice)
     0.011635504  0.000000000  0.000000000     0.066666667  0.000000000  0.000000000
     0.000000000  0.011635504  0.000000000     0.000000000  0.066666667  0.000000000
     0.000000000  0.000000000  0.011583634     0.000000000  0.000000000  0.066666667

  Length of vectors
     0.011635504  0.011635504  0.011583634

  Shift w.r.t. Gamma in fractional coordinates (k-lattice)
     0.000000000  0.000000000  0.000000000

 
 Subroutine IBZKPT returns following result:
 ===========================================
 
 Found    288 irreducible k-points:
 
 Following reciprocal coordinates:
            Coordinates               Weight
  0.000000  0.000000  0.000000      1.000000
  0.066667  0.000000  0.000000      4.000000
  0.133333  0.000000  0.000000      4.000000
  0.200000  0.000000  0.000000      4.000000
  0.266667  0.000000  0.000000      4.000000
  0.333333  0.000000  0.000000      4.000000
  0.400000  0.000000  0.000000      4.000000
  0.466667  0.000000  0.000000      4.000000
  0.066667  0.066667  0.000000      4.000000
  0.133333  0.066667  0.000000      8.000000
  0.200000  0.066667  0.000000      8.000000
  0.266667  0.066667  0.000000      8.000000
  0.333333  0.066667  0.000000      8.000000
  0.400000  0.066667  0.000000      8.000000
  0.466667  0.066667  0.000000      8.000000
  0.133333  0.133333  0.000000      4.000000
  0.200000  0.133333  0.000000      8.000000
  0.266667  0.133333  0.000000      8.000000
  0.333333  0.133333  0.000000      8.000000
  0.400000  0.133333  0.000000      8.000000
  0.466667  0.133333  0.000000      8.000000
  0.200000  0.200000  0.000000      4.000000
  0.266667  0.200000  0.000000      8.000000
  0.333333  0.200000  0.000000      8.000000
  0.400000  0.200000  0.000000      8.000000
  0.466667  0.200000  0.000000      8.000000
  0.266667  0.266667  0.000000      4.000000
  0.333333  0.266667  0.000000      8.000000
  0.400000  0.266667  0.000000      8.000000
  0.466667  0.266667  0.000000      8.000000
  0.333333  0.333333  0.000000      4.000000
  0.400000  0.333333  0.000000      8.000000
  0.466667  0.333333  0.000000      8.000000
  0.400000  0.400000  0.000000      4.000000
  0.466667  0.400000  0.000000      8.000000
  0.466667  0.466667  0.000000      4.000000
  0.000000  0.000000  0.066667      2.000000
  0.066667  0.000000  0.066667      8.000000
  0.133333  0.000000  0.066667      8.000000
  0.200000  0.000000  0.066667      8.000000
  0.266667  0.000000  0.066667      8.000000
  0.333333  0.000000  0.066667      8.000000
  0.400000  0.000000  0.066667      8.000000
  0.466667  0.000000  0.066667      8.000000
  0.066667  0.066667  0.066667      8.000000
  0.133333  0.066667  0.066667     16.000000
  0.200000  0.066667  0.066667     16.000000
  0.266667  0.066667  0.066667     16.000000
  0.333333  0.066667  0.066667     16.000000
  0.400000  0.066667  0.066667     16.000000
  0.466667  0.066667  0.066667     16.000000
  0.133333  0.133333  0.066667      8.000000
  0.200000  0.133333  0.066667     16.000000
  0.266667  0.133333  0.066667     16.000000
  0.333333  0.133333  0.066667     16.000000
  0.400000  0.133333  0.066667     16.000000
  0.466667  0.133333  0.066667     16.000000
  0.200000  0.200000  0.066667      8.000000
  0.266667  0.200000  0.066667     16.000000
  0.333333  0.200000  0.066667     16.000000
  0.400000  0.200000  0.066667     16.000000
  0.466667  0.200000  0.066667     16.000000
  0.266667  0.266667  0.066667      8.000000
  0.333333  0.266667  0.066667     16.000000
  0.400000  0.266667  0.066667     16.000000
  0.466667  0.266667  0.066667     16.000000
  0.333333  0.333333  0.066667      8.000000
  0.400000  0.333333  0.066667     16.000000
  0.466667  0.333333  0.066667     16.000000
  0.400000  0.400000  0.066667      8.000000
  0.466667  0.400000  0.066667     16.000000
  0.466667  0.466667  0.066667      8.000000
  0.000000  0.000000  0.133333      2.000000
  0.066667  0.000000  0.133333      8.000000
  0.133333  0.000000  0.133333      8.000000
  0.200000  0.000000  0.133333      8.000000
  0.266667  0.000000  0.133333      8.000000
  0.333333  0.000000  0.133333      8.000000
  0.400000  0.000000  0.133333      8.000000
  0.466667  0.000000  0.133333      8.000000
  0.066667  0.066667  0.133333      8.000000
  0.133333  0.066667  0.133333     16.000000
  0.200000  0.066667  0.133333     16.000000
  0.266667  0.066667  0.133333     16.000000
  0.333333  0.066667  0.133333     16.000000
  0.400000  0.066667  0.133333     16.000000
  0.466667  0.066667  0.133333     16.000000
  0.133333  0.133333  0.133333      8.000000
  0.200000  0.133333  0.133333     16.000000
  0.266667  0.133333  0.133333     16.000000
  0.333333  0.133333  0.133333     16.000000
  0.400000  0.133333  0.133333     16.000000
  0.466667  0.133333  0.133333     16.000000
  0.200000  0.200000  0.133333      8.000000
  0.266667  0.200000  0.133333     16.000000
  0.333333  0.200000  0.133333     16.000000
  0.400000  0.200000  0.133333     16.000000
  0.466667  0.200000  0.133333     16.000000
  0.266667  0.266667  0.133333      8.000000
  0.333333  0.266667  0.133333     16.000000
  0.400000  0.266667  0.133333     16.000000
  0.466667  0.266667  0.133333     16.000000
  0.333333  0.333333  0.133333      8.000000
  0.400000  0.333333  0.133333     16.000000
  0.466667  0.333333  0.133333     16.000000
  0.400000  0.400000  0.133333      8.000000
  0.466667  0.400000  0.133333     16.000000
  0.466667  0.466667  0.133333      8.000000
  0.000000  0.000000  0.200000      2.000000
  0.066667  0.000000  0.200000      8.000000
  0.133333  0.000000  0.200000      8.000000
  0.200000  0.000000  0.200000      8.000000
  0.266667  0.000000  0.200000      8.000000
  0.333333  0.000000  0.200000      8.000000
  0.400000  0.000000  0.200000      8.000000
  0.466667  0.000000  0.200000      8.000000
  0.066667  0.066667  0.200000      8.000000
  0.133333  0.066667  0.200000     16.000000
  0.200000  0.066667  0.200000     16.000000
  0.266667  0.066667  0.200000     16.000000
  0.333333  0.066667  0.200000     16.000000
  0.400000  0.066667  0.200000     16.000000
  0.466667  0.066667  0.200000     16.000000
  0.133333  0.133333  0.200000      8.000000
  0.200000  0.133333  0.200000     16.000000
  0.266667  0.133333  0.200000     16.000000
  0.333333  0.133333  0.200000     16.000000
  0.400000  0.133333  0.200000     16.000000
  0.466667  0.133333  0.200000     16.000000
  0.200000  0.200000  0.200000      8.000000
  0.266667  0.200000  0.200000     16.000000
  0.333333  0.200000  0.200000     16.000000
  0.400000  0.200000  0.200000     16.000000
  0.466667  0.200000  0.200000     16.000000
  0.266667  0.266667  0.200000      8.000000
  0.333333  0.266667  0.200000     16.000000
  0.400000  0.266667  0.200000     16.000000
  0.466667  0.266667  0.200000     16.000000
  0.333333  0.333333  0.200000      8.000000
  0.400000  0.333333  0.200000     16.000000
  0.466667  0.333333  0.200000     16.000000
  0.400000  0.400000  0.200000      8.000000
  0.466667  0.400000  0.200000     16.000000
  0.466667  0.466667  0.200000      8.000000
  0.000000  0.000000  0.266667      2.000000
  0.066667  0.000000  0.266667      8.000000
  0.133333  0.000000  0.266667      8.000000
  0.200000  0.000000  0.266667      8.000000
  0.266667  0.000000  0.266667      8.000000
  0.333333  0.000000  0.266667      8.000000
  0.400000  0.000000  0.266667      8.000000
  0.466667  0.000000  0.266667      8.000000
  0.066667  0.066667  0.266667      8.000000
  0.133333  0.066667  0.266667     16.000000
  0.200000  0.066667  0.266667     16.000000
  0.266667  0.066667  0.266667     16.000000
  0.333333  0.066667  0.266667     16.000000
  0.400000  0.066667  0.266667     16.000000
  0.466667  0.066667  0.266667     16.000000
  0.133333  0.133333  0.266667      8.000000
  0.200000  0.133333  0.266667     16.000000
  0.266667  0.133333  0.266667     16.000000
  0.333333  0.133333  0.266667     16.000000
  0.400000  0.133333  0.266667     16.000000
  0.466667  0.133333  0.266667     16.000000
  0.200000  0.200000  0.266667      8.000000
  0.266667  0.200000  0.266667     16.000000
  0.333333  0.200000  0.266667     16.000000
  0.400000  0.200000  0.266667     16.000000
  0.466667  0.200000  0.266667     16.000000
  0.266667  0.266667  0.266667      8.000000
  0.333333  0.266667  0.266667     16.000000
  0.400000  0.266667  0.266667     16.000000
  0.466667  0.266667  0.266667     16.000000
  0.333333  0.333333  0.266667      8.000000
  0.400000  0.333333  0.266667     16.000000
  0.466667  0.333333  0.266667     16.000000
  0.400000  0.400000  0.266667      8.000000
  0.466667  0.400000  0.266667     16.000000
  0.466667  0.466667  0.266667      8.000000
  0.000000  0.000000  0.333333      2.000000
  0.066667  0.000000  0.333333      8.000000
  0.133333  0.000000  0.333333      8.000000
  0.200000  0.000000  0.333333      8.000000
  0.266667  0.000000  0.333333      8.000000
  0.333333  0.000000  0.333333      8.000000
  0.400000  0.000000  0.333333      8.000000
  0.466667  0.000000  0.333333      8.000000
  0.066667  0.066667  0.333333      8.000000
  0.133333  0.066667  0.333333     16.000000
  0.200000  0.066667  0.333333     16.000000
  0.266667  0.066667  0.333333     16.000000
  0.333333  0.066667  0.333333     16.000000
  0.400000  0.066667  0.333333     16.000000
  0.466667  0.066667  0.333333     16.000000
  0.133333  0.133333  0.333333      8.000000
  0.200000  0.133333  0.333333     16.000000
  0.266667  0.133333  0.333333     16.000000
  0.333333  0.133333  0.333333     16.000000
  0.400000  0.133333  0.333333     16.000000
  0.466667  0.133333  0.333333     16.000000
  0.200000  0.200000  0.333333      8.000000
  0.266667  0.200000  0.333333     16.000000
  0.333333  0.200000  0.333333     16.000000
  0.400000  0.200000  0.333333     16.000000
  0.466667  0.200000  0.333333     16.000000
  0.266667  0.266667  0.333333      8.000000
  0.333333  0.266667  0.333333     16.000000
  0.400000  0.266667  0.333333     16.000000
  0.466667  0.266667  0.333333     16.000000
  0.333333  0.333333  0.333333      8.000000
  0.400000  0.333333  0.333333     16.000000
  0.466667  0.333333  0.333333     16.000000
  0.400000  0.400000  0.333333      8.000000
  0.466667  0.400000  0.333333     16.000000
  0.466667  0.466667  0.333333      8.000000
  0.000000  0.000000  0.400000      2.000000
  0.066667  0.000000  0.400000      8.000000
  0.133333  0.000000  0.400000      8.000000
  0.200000  0.000000  0.400000      8.000000
  0.266667  0.000000  0.400000      8.000000
  0.333333  0.000000  0.400000      8.000000
  0.400000  0.000000  0.400000      8.000000
  0.466667  0.000000  0.400000      8.000000
  0.066667  0.066667  0.400000      8.000000
  0.133333  0.066667  0.400000     16.000000
  0.200000  0.066667  0.400000     16.000000
  0.266667  0.066667  0.400000     16.000000
  0.333333  0.066667  0.400000     16.000000
  0.400000  0.066667  0.400000     16.000000
  0.466667  0.066667  0.400000     16.000000
  0.133333  0.133333  0.400000      8.000000
  0.200000  0.133333  0.400000     16.000000
  0.266667  0.133333  0.400000     16.000000
  0.333333  0.133333  0.400000     16.000000
  0.400000  0.133333  0.400000     16.000000
  0.466667  0.133333  0.400000     16.000000
  0.200000  0.200000  0.400000      8.000000
  0.266667  0.200000  0.400000     16.000000
  0.333333  0.200000  0.400000     16.000000
  0.400000  0.200000  0.400000     16.000000
  0.466667  0.200000  0.400000     16.000000
  0.266667  0.266667  0.400000      8.000000
  0.333333  0.266667  0.400000     16.000000
  0.400000  0.266667  0.400000     16.000000
  0.466667  0.266667  0.400000     16.000000
  0.333333  0.333333  0.400000      8.000000
  0.400000  0.333333  0.400000     16.000000
  0.466667  0.333333  0.400000     16.000000
  0.400000  0.400000  0.400000      8.000000
  0.466667  0.400000  0.400000     16.000000
  0.466667  0.466667  0.400000      8.000000
  0.000000  0.000000  0.466667      2.000000
  0.066667  0.000000  0.466667      8.000000
  0.133333  0.000000  0.466667      8.000000
  0.200000  0.000000  0.466667      8.000000
  0.266667  0.000000  0.466667      8.000000
  0.333333  0.000000  0.466667      8.000000
  0.400000  0.000000  0.466667      8.000000
  0.466667  0.000000  0.466667      8.000000
  0.066667  0.066667  0.466667      8.000000
  0.133333  0.066667  0.466667     16.000000
  0.200000  0.066667  0.466667     16.000000
  0.266667  0.066667  0.466667     16.000000
  0.333333  0.066667  0.466667     16.000000
  0.400000  0.066667  0.466667     16.000000
  0.466667  0.066667  0.466667     16.000000
  0.133333  0.133333  0.466667      8.000000
  0.200000  0.133333  0.466667     16.000000
  0.266667  0.133333  0.466667     16.000000
  0.333333  0.133333  0.466667     16.000000
  0.400000  0.133333  0.466667     16.000000
  0.466667  0.133333  0.466667     16.000000
  0.200000  0.200000  0.466667      8.000000
  0.266667  0.200000  0.466667     16.000000
  0.333333  0.200000  0.466667     16.000000
  0.400000  0.200000  0.466667     16.000000
  0.466667  0.200000  0.466667     16.000000
  0.266667  0.266667  0.466667      8.000000
  0.333333  0.266667  0.466667     16.000000
  0.400000  0.266667  0.466667     16.000000
  0.466667  0.266667  0.466667     16.000000
  0.333333  0.333333  0.466667      8.000000
  0.400000  0.333333  0.466667     16.000000
  0.466667  0.333333  0.466667     16.000000
  0.400000  0.400000  0.466667      8.000000
  0.466667  0.400000  0.466667     16.000000
  0.466667  0.466667  0.466667      8.000000
 
 Following cartesian coordinates:
            Coordinates               Weight
  0.000000  0.000000  0.000000      1.000000
  0.066788  0.000000  0.000000      4.000000
  0.133576  0.000000  0.000000      4.000000
  0.200363  0.000000  0.000000      4.000000
  0.267151  0.000000  0.000000      4.000000
  0.333939  0.000000  0.000000      4.000000
  0.400727  0.000000  0.000000      4.000000
  0.467515  0.000000  0.000000      4.000000
  0.066788  0.066788  0.000000      4.000000
  0.133576  0.066788  0.000000      8.000000
  0.200363  0.066788  0.000000      8.000000
  0.267151  0.066788  0.000000      8.000000
  0.333939  0.066788  0.000000      8.000000
  0.400727  0.066788  0.000000      8.000000
  0.467515  0.066788  0.000000      8.000000
  0.133576  0.133576  0.000000      4.000000
  0.200363  0.133576  0.000000      8.000000
  0.267151  0.133576  0.000000      8.000000
  0.333939  0.133576  0.000000      8.000000
  0.400727  0.133576  0.000000      8.000000
  0.467515  0.133576  0.000000      8.000000
  0.200363  0.200363  0.000000      4.000000
  0.267151  0.200363  0.000000      8.000000
  0.333939  0.200363  0.000000      8.000000
  0.400727  0.200363  0.000000      8.000000
  0.467515  0.200363  0.000000      8.000000
  0.267151  0.267151  0.000000      4.000000
  0.333939  0.267151  0.000000      8.000000
  0.400727  0.267151  0.000000      8.000000
  0.467515  0.267151  0.000000      8.000000
  0.333939  0.333939  0.000000      4.000000
  0.400727  0.333939  0.000000      8.000000
  0.467515  0.333939  0.000000      8.000000
  0.400727  0.400727  0.000000      4.000000
  0.467515  0.400727  0.000000      8.000000
  0.467515  0.467515  0.000000      4.000000
  0.000000  0.000000  0.066490      2.000000
  0.066788  0.000000  0.066490      8.000000
  0.133576  0.000000  0.066490      8.000000
  0.200363  0.000000  0.066490      8.000000
  0.267151  0.000000  0.066490      8.000000
  0.333939  0.000000  0.066490      8.000000
  0.400727  0.000000  0.066490      8.000000
  0.467515  0.000000  0.066490      8.000000
  0.066788  0.066788  0.066490      8.000000
  0.133576  0.066788  0.066490     16.000000
  0.200363  0.066788  0.066490     16.000000
  0.267151  0.066788  0.066490     16.000000
  0.333939  0.066788  0.066490     16.000000
  0.400727  0.066788  0.066490     16.000000
  0.467515  0.066788  0.066490     16.000000
  0.133576  0.133576  0.066490      8.000000
  0.200363  0.133576  0.066490     16.000000
  0.267151  0.133576  0.066490     16.000000
  0.333939  0.133576  0.066490     16.000000
  0.400727  0.133576  0.066490     16.000000
  0.467515  0.133576  0.066490     16.000000
  0.200363  0.200363  0.066490      8.000000
  0.267151  0.200363  0.066490     16.000000
  0.333939  0.200363  0.066490     16.000000
  0.400727  0.200363  0.066490     16.000000
  0.467515  0.200363  0.066490     16.000000
  0.267151  0.267151  0.066490      8.000000
  0.333939  0.267151  0.066490     16.000000
  0.400727  0.267151  0.066490     16.000000
  0.467515  0.267151  0.066490     16.000000
  0.333939  0.333939  0.066490      8.000000
  0.400727  0.333939  0.066490     16.000000
  0.467515  0.333939  0.066490     16.000000
  0.400727  0.400727  0.066490      8.000000
  0.467515  0.400727  0.066490     16.000000
  0.467515  0.467515  0.066490      8.000000
  0.000000  0.000000  0.132980      2.000000
  0.066788  0.000000  0.132980      8.000000
  0.133576  0.000000  0.132980      8.000000
  0.200363  0.000000  0.132980      8.000000
  0.267151  0.000000  0.132980      8.000000
  0.333939  0.000000  0.132980      8.000000
  0.400727  0.000000  0.132980      8.000000
  0.467515  0.000000  0.132980      8.000000
  0.066788  0.066788  0.132980      8.000000
  0.133576  0.066788  0.132980     16.000000
  0.200363  0.066788  0.132980     16.000000
  0.267151  0.066788  0.132980     16.000000
  0.333939  0.066788  0.132980     16.000000
  0.400727  0.066788  0.132980     16.000000
  0.467515  0.066788  0.132980     16.000000
  0.133576  0.133576  0.132980      8.000000
  0.200363  0.133576  0.132980     16.000000
  0.267151  0.133576  0.132980     16.000000
  0.333939  0.133576  0.132980     16.000000
  0.400727  0.133576  0.132980     16.000000
  0.467515  0.133576  0.132980     16.000000
  0.200363  0.200363  0.132980      8.000000
  0.267151  0.200363  0.132980     16.000000
  0.333939  0.200363  0.132980     16.000000
  0.400727  0.200363  0.132980     16.000000
  0.467515  0.200363  0.132980     16.000000
  0.267151  0.267151  0.132980      8.000000
  0.333939  0.267151  0.132980     16.000000
  0.400727  0.267151  0.132980     16.000000
  0.467515  0.267151  0.132980     16.000000
  0.333939  0.333939  0.132980      8.000000
  0.400727  0.333939  0.132980     16.000000
  0.467515  0.333939  0.132980     16.000000
  0.400727  0.400727  0.132980      8.000000
  0.467515  0.400727  0.132980     16.000000
  0.467515  0.467515  0.132980      8.000000
  0.000000  0.000000  0.199470      2.000000
  0.066788  0.000000  0.199470      8.000000
  0.133576  0.000000  0.199470      8.000000
  0.200363  0.000000  0.199470      8.000000
  0.267151  0.000000  0.199470      8.000000
  0.333939  0.000000  0.199470      8.000000
  0.400727  0.000000  0.199470      8.000000
  0.467515  0.000000  0.199470      8.000000
  0.066788  0.066788  0.199470      8.000000
  0.133576  0.066788  0.199470     16.000000
  0.200363  0.066788  0.199470     16.000000
  0.267151  0.066788  0.199470     16.000000
  0.333939  0.066788  0.199470     16.000000
  0.400727  0.066788  0.199470     16.000000
  0.467515  0.066788  0.199470     16.000000
  0.133576  0.133576  0.199470      8.000000
  0.200363  0.133576  0.199470     16.000000
  0.267151  0.133576  0.199470     16.000000
  0.333939  0.133576  0.199470     16.000000
  0.400727  0.133576  0.199470     16.000000
  0.467515  0.133576  0.199470     16.000000
  0.200363  0.200363  0.199470      8.000000
  0.267151  0.200363  0.199470     16.000000
  0.333939  0.200363  0.199470     16.000000
  0.400727  0.200363  0.199470     16.000000
  0.467515  0.200363  0.199470     16.000000
  0.267151  0.267151  0.199470      8.000000
  0.333939  0.267151  0.199470     16.000000
  0.400727  0.267151  0.199470     16.000000
  0.467515  0.267151  0.199470     16.000000
  0.333939  0.333939  0.199470      8.000000
  0.400727  0.333939  0.199470     16.000000
  0.467515  0.333939  0.199470     16.000000
  0.400727  0.400727  0.199470      8.000000
  0.467515  0.400727  0.199470     16.000000
  0.467515  0.467515  0.199470      8.000000
  0.000000  0.000000  0.265960      2.000000
  0.066788  0.000000  0.265960      8.000000
  0.133576  0.000000  0.265960      8.000000
  0.200363  0.000000  0.265960      8.000000
  0.267151  0.000000  0.265960      8.000000
  0.333939  0.000000  0.265960      8.000000
  0.400727  0.000000  0.265960      8.000000
  0.467515  0.000000  0.265960      8.000000
  0.066788  0.066788  0.265960      8.000000
  0.133576  0.066788  0.265960     16.000000
  0.200363  0.066788  0.265960     16.000000
  0.267151  0.066788  0.265960     16.000000
  0.333939  0.066788  0.265960     16.000000
  0.400727  0.066788  0.265960     16.000000
  0.467515  0.066788  0.265960     16.000000
  0.133576  0.133576  0.265960      8.000000
  0.200363  0.133576  0.265960     16.000000
  0.267151  0.133576  0.265960     16.000000
  0.333939  0.133576  0.265960     16.000000
  0.400727  0.133576  0.265960     16.000000
  0.467515  0.133576  0.265960     16.000000
  0.200363  0.200363  0.265960      8.000000
  0.267151  0.200363  0.265960     16.000000
  0.333939  0.200363  0.265960     16.000000
  0.400727  0.200363  0.265960     16.000000
  0.467515  0.200363  0.265960     16.000000
  0.267151  0.267151  0.265960      8.000000
  0.333939  0.267151  0.265960     16.000000
  0.400727  0.267151  0.265960     16.000000
  0.467515  0.267151  0.265960     16.000000
  0.333939  0.333939  0.265960      8.000000
  0.400727  0.333939  0.265960     16.000000
  0.467515  0.333939  0.265960     16.000000
  0.400727  0.400727  0.265960      8.000000
  0.467515  0.400727  0.265960     16.000000
  0.467515  0.467515  0.265960      8.000000
  0.000000  0.000000  0.332450      2.000000
  0.066788  0.000000  0.332450      8.000000
  0.133576  0.000000  0.332450      8.000000
  0.200363  0.000000  0.332450      8.000000
  0.267151  0.000000  0.332450      8.000000
  0.333939  0.000000  0.332450      8.000000
  0.400727  0.000000  0.332450      8.000000
  0.467515  0.000000  0.332450      8.000000
  0.066788  0.066788  0.332450      8.000000
  0.133576  0.066788  0.332450     16.000000
  0.200363  0.066788  0.332450     16.000000
  0.267151  0.066788  0.332450     16.000000
  0.333939  0.066788  0.332450     16.000000
  0.400727  0.066788  0.332450     16.000000
  0.467515  0.066788  0.332450     16.000000
  0.133576  0.133576  0.332450      8.000000
  0.200363  0.133576  0.332450     16.000000
  0.267151  0.133576  0.332450     16.000000
  0.333939  0.133576  0.332450     16.000000
  0.400727  0.133576  0.332450     16.000000
  0.467515  0.133576  0.332450     16.000000
  0.200363  0.200363  0.332450      8.000000
  0.267151  0.200363  0.332450     16.000000
  0.333939  0.200363  0.332450     16.000000
  0.400727  0.200363  0.332450     16.000000
  0.467515  0.200363  0.332450     16.000000
  0.267151  0.267151  0.332450      8.000000
  0.333939  0.267151  0.332450     16.000000
  0.400727  0.267151  0.332450     16.000000
  0.467515  0.267151  0.332450     16.000000
  0.333939  0.333939  0.332450      8.000000
  0.400727  0.333939  0.332450     16.000000
  0.467515  0.333939  0.332450     16.000000
  0.400727  0.400727  0.332450      8.000000
  0.467515  0.400727  0.332450     16.000000
  0.467515  0.467515  0.332450      8.000000
  0.000000  0.000000  0.398940      2.000000
  0.066788  0.000000  0.398940      8.000000
  0.133576  0.000000  0.398940      8.000000
  0.200363  0.000000  0.398940      8.000000
  0.267151  0.000000  0.398940      8.000000
  0.333939  0.000000  0.398940      8.000000
  0.400727  0.000000  0.398940      8.000000
  0.467515  0.000000  0.398940      8.000000
  0.066788  0.066788  0.398940      8.000000
  0.133576  0.066788  0.398940     16.000000
  0.200363  0.066788  0.398940     16.000000
  0.267151  0.066788  0.398940     16.000000
  0.333939  0.066788  0.398940     16.000000
  0.400727  0.066788  0.398940     16.000000
  0.467515  0.066788  0.398940     16.000000
  0.133576  0.133576  0.398940      8.000000
  0.200363  0.133576  0.398940     16.000000
  0.267151  0.133576  0.398940     16.000000
  0.333939  0.133576  0.398940     16.000000
  0.400727  0.133576  0.398940     16.000000
  0.467515  0.133576  0.398940     16.000000
  0.200363  0.200363  0.398940      8.000000
  0.267151  0.200363  0.398940     16.000000
  0.333939  0.200363  0.398940     16.000000
  0.400727  0.200363  0.398940     16.000000
  0.467515  0.200363  0.398940     16.000000
  0.267151  0.267151  0.398940      8.000000
  0.333939  0.267151  0.398940     16.000000
  0.400727  0.267151  0.398940     16.000000
  0.467515  0.267151  0.398940     16.000000
  0.333939  0.333939  0.398940      8.000000
  0.400727  0.333939  0.398940     16.000000
  0.467515  0.333939  0.398940     16.000000
  0.400727  0.400727  0.398940      8.000000
  0.467515  0.400727  0.398940     16.000000
  0.467515  0.467515  0.398940      8.000000
  0.000000  0.000000  0.465430      2.000000
  0.066788  0.000000  0.465430      8.000000
  0.133576  0.000000  0.465430      8.000000
  0.200363  0.000000  0.465430      8.000000
  0.267151  0.000000  0.465430      8.000000
  0.333939  0.000000  0.465430      8.000000
  0.400727  0.000000  0.465430      8.000000
  0.467515  0.000000  0.465430      8.000000
  0.066788  0.066788  0.465430      8.000000
  0.133576  0.066788  0.465430     16.000000
  0.200363  0.066788  0.465430     16.000000
  0.267151  0.066788  0.465430     16.000000
  0.333939  0.066788  0.465430     16.000000
  0.400727  0.066788  0.465430     16.000000
  0.467515  0.066788  0.465430     16.000000
  0.133576  0.133576  0.465430      8.000000
  0.200363  0.133576  0.465430     16.000000
  0.267151  0.133576  0.465430     16.000000
  0.333939  0.133576  0.465430     16.000000
  0.400727  0.133576  0.465430     16.000000
  0.467515  0.133576  0.465430     16.000000
  0.200363  0.200363  0.465430      8.000000
  0.267151  0.200363  0.465430     16.000000
  0.333939  0.200363  0.465430     16.000000
  0.400727  0.200363  0.465430     16.000000
  0.467515  0.200363  0.465430     16.000000
  0.267151  0.267151  0.465430      8.000000
  0.333939  0.267151  0.465430     16.000000
  0.400727  0.267151  0.465430     16.000000
  0.467515  0.267151  0.465430     16.000000
  0.333939  0.333939  0.465430      8.000000
  0.400727  0.333939  0.465430     16.000000
  0.467515  0.333939  0.465430     16.000000
  0.400727  0.400727  0.465430      8.000000
  0.467515  0.400727  0.465430     16.000000
  0.467515  0.467515  0.465430      8.000000
 


--------------------------------------------------------------------------------------------------------




 Dimension of arrays:
   k-points           NKPTS =    288   k-points in BZ     NKDIM =    288   number of bands    NBANDS=    150
   number of dos      NEDOS =   1500   number of ions     NIONS =     16
   non local maximal  LDIM  =      6   non local SUM 2l+1 LMDIM =     18
   total plane-waves  NPLWV =  74088
   max r-space proj   IRMAX =   5314   max aug-charges    IRDMAX= 119073
   dimension x,y,z NGX =    42 NGY =   42 NGZ =   42
   dimension x,y,z NGXF=    84 NGYF=   84 NGZF=   84
   support grid    NGXF=   168 NGYF=  168 NGZF=  168
   ions per type =               8   4   4
   NGX,Y,Z   is equivalent  to a cutoff of  12.19, 12.19, 12.13 a.u.
   NGXF,Y,Z  is equivalent  to a cutoff of  24.37, 24.37, 24.26 a.u.

 SYSTEM =  NiCoMnGa                                
 POSCAR =  Heusler tetragonal                      

 Startparameter for this run:
   NWRITE =      2    write-flag & timer
   PREC   = accura    normal or accurate (medium, high low for compatibility)
   ISTART =      0    job   : 0-new  1-cont  2-samecut
   ICHARG =      2    charge: 1-file 2-atom 10-const
   ISPIN  =      2    spin polarized calculation?
   LNONCOLLINEAR =      F non collinear calculations
   LSORBIT =      F    spin-orbit coupling
   INIWAV =      1    electr: 0-lowe 1-rand  2-diag
   LASPH  =      F    aspherical Exc in radial PAW
   METAGGA=      F    non-selfconsistent MetaGGA calc.

 Electronic Relaxation 1
   ENCUT  =  500.0 eV  36.75 Ry    6.06 a.u.  10.45 10.45 10.49*2*pi/ulx,y,z
   ENINI  =  500.0     initial cutoff
   ENAUG  =  578.3 eV  augmentation charge cutoff
   NELM   =    160;   NELMIN=  2; NELMDL= -6     # of ELM steps 
   EDIFF  = 0.1E-05   stopping-criterion for ELM
   LREAL  =      T    real-space projection
   NLSPLINE    = F    spline interpolate recip. space projectors
   LCOMPAT=      F    compatible to vasp.4.4
   GGA_COMPAT  = T    GGA compatible to vasp.4.4-vasp.4.6
   LMAXPAW     = -100 max onsite density
   LMAXMIX     =    6 max onsite mixed and CHGCAR
   VOSKOWN=      0    Vosko Wilk Nusair interpolation
   ROPT   =   -0.00025  -0.00025  -0.00025
 Ionic relaxation
   EDIFFG = 0.1E-02   stopping-criterion for IOM
   NSW    =      0    number of steps for IOM
   NBLOCK =      1;   KBLOCK =      1    inner block; outer block 
   IBRION =     -1    ionic relax: 0-MD 1-quasi-New 2-CG
   NFREE  =      1    steps in history (QN), initial steepest desc. (CG)
   ISIF   =      3    stress and relaxation
   IWAVPR =     10    prediction:  0-non 1-charg 2-wave 3-comb
   ISYM   =      2    0-nonsym 1-usesym 2-fastsym
   LCORR  =      T    Harris-Foulkes like correction to forces

   POTIM  = 0.0100    time-step for ionic-motion
   TEIN   =    0.0    initial temperature
   TEBEG  =    0.0;   TEEND  =   0.0 temperature during run
   SMASS  =  -3.00    Nose mass-parameter (am)
   estimated Nose-frequenzy (Omega)   =  0.10E-29 period in steps = 0.63E+48 mass=  -0.750E-27a.u.
   SCALEE = 1.0000    scale energy and forces
   NPACO  =    256;   APACO  = 16.0  distance and # of slots for P.C.
   PSTRESS=    0.0 pullay stress

  Mass of Ions in am
   POMASS =  55.85 58.93 69.72
  Ionic Valenz
   ZVAL   =  14.00 15.00 13.00
  Atomic Wigner-Seitz radii
   RWIGS  =   1.16  1.16  1.16
  virtual crystal weights 
   VCA    =   1.00  1.00  1.00
   NELECT =     224.0000    total number of electrons
   NUPDOWN=      -1.0000    fix difference up-down

 DOS related values:
   EMIN   =  10.00;   EMAX   =-10.00  energy-range for DOS
   EFERMI =   0.00
   ISMEAR =     1;   SIGMA  =   0.10  broadening in eV -4-tet -1-fermi 0-gaus

 Electronic relaxation 2 (details)
   IALGO  =     38    algorithm
   LDIAG  =      T    sub-space diagonalisation (order eigenvalues)
   LSUBROT=      F    optimize rotation matrix (better conditioning)
   TURBO    =      0    0=normal 1=particle mesh
   IRESTART =      0    0=no restart 2=restart with 2 vectors
   NREBOOT  =      0    no. of reboots
   NMIN     =      0    reboot dimension
   EREF     =   0.00    reference energy to select bands
   IMIX   =      4    mixing-type and parameters
     AMIX     =   0.18;   BMIX     =  0.00
     AMIX_MAG =   0.26;   BMIX_MAG =  0.01
     AMIN     =   0.10
     WC   =   100.;   INIMIX=   1;  MIXPRE=   1;  MAXMIX= -45

 Intra band minimization:
   WEIMIN = 0.0000     energy-eigenvalue tresh-hold
   EBREAK =  0.17E-08  absolut break condition
   DEPER  =   0.30     relativ break condition  

   TIME   =   0.40     timestep for ELM

  volume/ion in A,a.u.               =      11.81        79.69
  Fermi-wavevector in a.u.,A,eV,Ry     =   1.732689  3.274307 40.847541  3.002210
  Thomas-Fermi vector in A             =   2.806817
 
 Write flags
   LWAVE        =      F    write WAVECAR
   LDOWNSAMPLE  =      F    k-point downsampling of WAVECAR
   LCHARG       =      T    write CHGCAR
   LVTOT        =      F    write LOCPOT, total local potential
   LVHAR        =      F    write LOCPOT, Hartree potential only
   LELF         =      F    write electronic localiz. function (ELF)
   LORBIT       =     10    0 simple, 1 ext, 2 COOP (PROOUT), +10 PAW based schemes


 Dipole corrections
   LMONO  =      F    monopole corrections only (constant potential shift)
   LDIPOL =      F    correct potential (dipole corrections)
   IDIPOL =      0    1-x, 2-y, 3-z, 4-all directions 
   EPSILON=  1.0000000 bulk dielectric constant

 Exchange correlation treatment:
   GGA     =    --    GGA type
   LEXCH   =     8    internal setting for exchange type
   VOSKOWN=      0    Vosko Wilk Nusair interpolation
   LHFCALC =     F    Hartree Fock is set to
   LHFONE  =     F    Hartree Fock one center treatment
   AEXX    =    0.0000 exact exchange contribution

 Linear response parameters
   LEPSILON=     F    determine dielectric tensor
   LRPA    =     F    only Hartree local field effects (RPA)
   LNABLA  =     F    use nabla operator in PAW spheres
   LVEL    =     F    velocity operator in full k-point grid
   LINTERFAST=   F  fast interpolation
   KINTER  =     0    interpolate to denser k-point grid
   CSHIFT  =0.1000    complex shift for real part using Kramers Kronig
   OMEGAMAX=  -1.0    maximum frequency
   DEG_THRESHOLD= 0.2000000E-02 threshold for treating states as degnerate
   RTIME   =   -0.100 relaxation time in fs
  (WPLASMAI=    0.000 imaginary part of plasma frequency in eV, 0.658/RTIME)
   DFIELD  = 0.0000000 0.0000000 0.0000000 field for delta impulse in time
 
 Orbital magnetization related:
   ORBITALMAG=     F  switch on orbital magnetization
   LCHIMAG   =     F  perturbation theory with respect to B field
   DQ        =  0.001000  dq finite difference perturbation B field
   LLRAUG    =     F  two centre corrections for induced B field



--------------------------------------------------------------------------------------------------------


 Static calculation
 charge density and potential will be updated during run
 spin polarized calculation
 Variant of blocked Davidson
 Davidson routine will perform the subspace rotation
 perform sub-space diagonalisation
    after iterative eigenvector-optimisation
 modified Broyden-mixing scheme, WC =      100.0
 initial mixing is a Kerker type mixing with AMIX =  0.1800 and BMIX =      0.0025
 Hartree-type preconditioning will be used
 using additional bands           38
 real space projection scheme for non local part
 use partial core corrections
 calculate Harris-corrections to forces 
   (improved forces if not selfconsistent)
 use gradient corrections 
 use of overlap-Matrix (Vanderbilt PP)
 Methfessel and Paxton  Order N= 1 SIGMA  =   0.10


--------------------------------------------------------------------------------------------------------


  energy-cutoff  :      500.00
  volume of cell :      188.93
      direct lattice vectors                 reciprocal lattice vectors
     5.729590084  0.000000000  0.000000000     0.174532556  0.000000000  0.000000000
     0.000000000  5.729590084  0.000000000     0.000000000  0.174532556  0.000000000
     0.000000000  0.000000000  5.755246127     0.000000000  0.000000000  0.173754515

  length of vectors
     5.729590084  5.729590084  5.755246127     0.174532556  0.174532556  0.173754515


 
 k-points in units of 2pi/SCALE and weight: Ni7CoMn5CrSn2                           
   0.00000000  0.00000000  0.00000000       0.000
   0.06678779  0.00000000  0.00000000       0.001
   0.13357558  0.00000000  0.00000000       0.001
   0.20036337  0.00000000  0.00000000       0.001
   0.26715117  0.00000000  0.00000000       0.001
   0.33393896  0.00000000  0.00000000       0.001
   0.40072675  0.00000000  0.00000000       0.001
   0.46751454  0.00000000  0.00000000       0.001
   0.06678779  0.06678779  0.00000000       0.001
   0.13357558  0.06678779  0.00000000       0.002
   0.20036337  0.06678779  0.00000000       0.002
   0.26715117  0.06678779  0.00000000       0.002
   0.33393896  0.06678779  0.00000000       0.002
   0.40072675  0.06678779  0.00000000       0.002
   0.46751454  0.06678779  0.00000000       0.002
   0.13357558  0.13357558  0.00000000       0.001
   0.20036337  0.13357558  0.00000000       0.002
   0.26715117  0.13357558  0.00000000       0.002
   0.33393896  0.13357558  0.00000000       0.002
   0.40072675  0.13357558  0.00000000       0.002
   0.46751454  0.13357558  0.00000000       0.002
   0.20036337  0.20036337  0.00000000       0.001
   0.26715117  0.20036337  0.00000000       0.002
   0.33393896  0.20036337  0.00000000       0.002
   0.40072675  0.20036337  0.00000000       0.002
   0.46751454  0.20036337  0.00000000       0.002
   0.26715117  0.26715117  0.00000000       0.001
   0.33393896  0.26715117  0.00000000       0.002
   0.40072675  0.26715117  0.00000000       0.002
   0.46751454  0.26715117  0.00000000       0.002
   0.33393896  0.33393896  0.00000000       0.001
   0.40072675  0.33393896  0.00000000       0.002
   0.46751454  0.33393896  0.00000000       0.002
   0.40072675  0.40072675  0.00000000       0.001
   0.46751454  0.40072675  0.00000000       0.002
   0.46751454  0.46751454  0.00000000       0.001
   0.00000000  0.00000000  0.06649006       0.001
   0.06678779  0.00000000  0.06649006       0.002
   0.13357558  0.00000000  0.06649006       0.002
   0.20036337  0.00000000  0.06649006       0.002
   0.26715117  0.00000000  0.06649006       0.002
   0.33393896  0.00000000  0.06649006       0.002
   0.40072675  0.00000000  0.06649006       0.002
   0.46751454  0.00000000  0.06649006       0.002
   0.06678779  0.06678779  0.06649006       0.002
   0.13357558  0.06678779  0.06649006       0.005
   0.20036337  0.06678779  0.06649006       0.005
   0.26715117  0.06678779  0.06649006       0.005
   0.33393896  0.06678779  0.06649006       0.005
   0.40072675  0.06678779  0.06649006       0.005
   0.46751454  0.06678779  0.06649006       0.005
   0.13357558  0.13357558  0.06649006       0.002
   0.20036337  0.13357558  0.06649006       0.005
   0.26715117  0.13357558  0.06649006       0.005
   0.33393896  0.13357558  0.06649006       0.005
   0.40072675  0.13357558  0.06649006       0.005
   0.46751454  0.13357558  0.06649006       0.005
   0.20036337  0.20036337  0.06649006       0.002
   0.26715117  0.20036337  0.06649006       0.005
   0.33393896  0.20036337  0.06649006       0.005
   0.40072675  0.20036337  0.06649006       0.005
   0.46751454  0.20036337  0.06649006       0.005
   0.26715117  0.26715117  0.06649006       0.002
   0.33393896  0.26715117  0.06649006       0.005
   0.40072675  0.26715117  0.06649006       0.005
   0.46751454  0.26715117  0.06649006       0.005
   0.33393896  0.33393896  0.06649006       0.002
   0.40072675  0.33393896  0.06649006       0.005
   0.46751454  0.33393896  0.06649006       0.005
   0.40072675  0.40072675  0.06649006       0.002
   0.46751454  0.40072675  0.06649006       0.005
   0.46751454  0.46751454  0.06649006       0.002
   0.00000000  0.00000000  0.13298012       0.001
   0.06678779  0.00000000  0.13298012       0.002
   0.13357558  0.00000000  0.13298012       0.002
   0.20036337  0.00000000  0.13298012       0.002
   0.26715117  0.00000000  0.13298012       0.002
   0.33393896  0.00000000  0.13298012       0.002
   0.40072675  0.00000000  0.13298012       0.002
   0.46751454  0.00000000  0.13298012       0.002
   0.06678779  0.06678779  0.13298012       0.002
   0.13357558  0.06678779  0.13298012       0.005
   0.20036337  0.06678779  0.13298012       0.005
   0.26715117  0.06678779  0.13298012       0.005
   0.33393896  0.06678779  0.13298012       0.005
   0.40072675  0.06678779  0.13298012       0.005
   0.46751454  0.06678779  0.13298012       0.005
   0.13357558  0.13357558  0.13298012       0.002
   0.20036337  0.13357558  0.13298012       0.005
   0.26715117  0.13357558  0.13298012       0.005
   0.33393896  0.13357558  0.13298012       0.005
   0.40072675  0.13357558  0.13298012       0.005
   0.46751454  0.13357558  0.13298012       0.005
   0.20036337  0.20036337  0.13298012       0.002
   0.26715117  0.20036337  0.13298012       0.005
   0.33393896  0.20036337  0.13298012       0.005
   0.40072675  0.20036337  0.13298012       0.005
   0.46751454  0.20036337  0.13298012       0.005
   0.26715117  0.26715117  0.13298012       0.002
   0.33393896  0.26715117  0.13298012       0.005
   0.40072675  0.26715117  0.13298012       0.005
   0.46751454  0.26715117  0.13298012       0.005
   0.33393896  0.33393896  0.13298012       0.002
   0.40072675  0.33393896  0.13298012       0.005
   0.46751454  0.33393896  0.13298012       0.005
   0.40072675  0.40072675  0.13298012       0.002
   0.46751454  0.40072675  0.13298012       0.005
   0.46751454  0.46751454  0.13298012       0.002
   0.00000000  0.00000000  0.19947018       0.001
   0.06678779  0.00000000  0.19947018       0.002
   0.13357558  0.00000000  0.19947018       0.002
   0.20036337  0.00000000  0.19947018       0.002
   0.26715117  0.00000000  0.19947018       0.002
   0.33393896  0.00000000  0.19947018       0.002
   0.40072675  0.00000000  0.19947018       0.002
   0.46751454  0.00000000  0.19947018       0.002
   0.06678779  0.06678779  0.19947018       0.002
   0.13357558  0.06678779  0.19947018       0.005
   0.20036337  0.06678779  0.19947018       0.005
   0.26715117  0.06678779  0.19947018       0.005
   0.33393896  0.06678779  0.19947018       0.005
   0.40072675  0.06678779  0.19947018       0.005
   0.46751454  0.06678779  0.19947018       0.005
   0.13357558  0.13357558  0.19947018       0.002
   0.20036337  0.13357558  0.19947018       0.005
   0.26715117  0.13357558  0.19947018       0.005
   0.33393896  0.13357558  0.19947018       0.005
   0.40072675  0.13357558  0.19947018       0.005
   0.46751454  0.13357558  0.19947018       0.005
   0.20036337  0.20036337  0.19947018       0.002
   0.26715117  0.20036337  0.19947018       0.005
   0.33393896  0.20036337  0.19947018       0.005
   0.40072675  0.20036337  0.19947018       0.005
   0.46751454  0.20036337  0.19947018       0.005
   0.26715117  0.26715117  0.19947018       0.002
   0.33393896  0.26715117  0.19947018       0.005
   0.40072675  0.26715117  0.19947018       0.005
   0.46751454  0.26715117  0.19947018       0.005
   0.33393896  0.33393896  0.19947018       0.002
   0.40072675  0.33393896  0.19947018       0.005
   0.46751454  0.33393896  0.19947018       0.005
   0.40072675  0.40072675  0.19947018       0.002
   0.46751454  0.40072675  0.19947018       0.005
   0.46751454  0.46751454  0.19947018       0.002
   0.00000000  0.00000000  0.26596024       0.001
   0.06678779  0.00000000  0.26596024       0.002
   0.13357558  0.00000000  0.26596024       0.002
   0.20036337  0.00000000  0.26596024       0.002
   0.26715117  0.00000000  0.26596024       0.002
   0.33393896  0.00000000  0.26596024       0.002
   0.40072675  0.00000000  0.26596024       0.002
   0.46751454  0.00000000  0.26596024       0.002
   0.06678779  0.06678779  0.26596024       0.002
   0.13357558  0.06678779  0.26596024       0.005
   0.20036337  0.06678779  0.26596024       0.005
   0.26715117  0.06678779  0.26596024       0.005
   0.33393896  0.06678779  0.26596024       0.005
   0.40072675  0.06678779  0.26596024       0.005
   0.46751454  0.06678779  0.26596024       0.005
   0.13357558  0.13357558  0.26596024       0.002
   0.20036337  0.13357558  0.26596024       0.005
   0.26715117  0.13357558  0.26596024       0.005
   0.33393896  0.13357558  0.26596024       0.005
   0.40072675  0.13357558  0.26596024       0.005
   0.46751454  0.13357558  0.26596024       0.005
   0.20036337  0.20036337  0.26596024       0.002
   0.26715117  0.20036337  0.26596024       0.005
   0.33393896  0.20036337  0.26596024       0.005
   0.40072675  0.20036337  0.26596024       0.005
   0.46751454  0.20036337  0.26596024       0.005
   0.26715117  0.26715117  0.26596024       0.002
   0.33393896  0.26715117  0.26596024       0.005
   0.40072675  0.26715117  0.26596024       0.005
   0.46751454  0.26715117  0.26596024       0.005
   0.33393896  0.33393896  0.26596024       0.002
   0.40072675  0.33393896  0.26596024       0.005
   0.46751454  0.33393896  0.26596024       0.005
   0.40072675  0.40072675  0.26596024       0.002
   0.46751454  0.40072675  0.26596024       0.005
   0.46751454  0.46751454  0.26596024       0.002
   0.00000000  0.00000000  0.33245031       0.001
   0.06678779  0.00000000  0.33245031       0.002
   0.13357558  0.00000000  0.33245031       0.002
   0.20036337  0.00000000  0.33245031       0.002
   0.26715117  0.00000000  0.33245031       0.002
   0.33393896  0.00000000  0.33245031       0.002
   0.40072675  0.00000000  0.33245031       0.002
   0.46751454  0.00000000  0.33245031       0.002
   0.06678779  0.06678779  0.33245031       0.002
   0.13357558  0.06678779  0.33245031       0.005
   0.20036337  0.06678779  0.33245031       0.005
   0.26715117  0.06678779  0.33245031       0.005
   0.33393896  0.06678779  0.33245031       0.005
   0.40072675  0.06678779  0.33245031       0.005
   0.46751454  0.06678779  0.33245031       0.005
   0.13357558  0.13357558  0.33245031       0.002
   0.20036337  0.13357558  0.33245031       0.005
   0.26715117  0.13357558  0.33245031       0.005
   0.33393896  0.13357558  0.33245031       0.005
   0.40072675  0.13357558  0.33245031       0.005
   0.46751454  0.13357558  0.33245031       0.005
   0.20036337  0.20036337  0.33245031       0.002
   0.26715117  0.20036337  0.33245031       0.005
   0.33393896  0.20036337  0.33245031       0.005
   0.40072675  0.20036337  0.33245031       0.005
   0.46751454  0.20036337  0.33245031       0.005
   0.26715117  0.26715117  0.33245031       0.002
   0.33393896  0.26715117  0.33245031       0.005
   0.40072675  0.26715117  0.33245031       0.005
   0.46751454  0.26715117  0.33245031       0.005
   0.33393896  0.33393896  0.33245031       0.002
   0.40072675  0.33393896  0.33245031       0.005
   0.46751454  0.33393896  0.33245031       0.005
   0.40072675  0.40072675  0.33245031       0.002
   0.46751454  0.40072675  0.33245031       0.005
   0.46751454  0.46751454  0.33245031       0.002
   0.00000000  0.00000000  0.39894037       0.001
   0.06678779  0.00000000  0.39894037       0.002
   0.13357558  0.00000000  0.39894037       0.002
   0.20036337  0.00000000  0.39894037       0.002
   0.26715117  0.00000000  0.39894037       0.002
   0.33393896  0.00000000  0.39894037       0.002
   0.40072675  0.00000000  0.39894037       0.002
   0.46751454  0.00000000  0.39894037       0.002
   0.06678779  0.06678779  0.39894037       0.002
   0.13357558  0.06678779  0.39894037       0.005
   0.20036337  0.06678779  0.39894037       0.005
   0.26715117  0.06678779  0.39894037       0.005
   0.33393896  0.06678779  0.39894037       0.005
   0.40072675  0.06678779  0.39894037       0.005
   0.46751454  0.06678779  0.39894037       0.005
   0.13357558  0.13357558  0.39894037       0.002
   0.20036337  0.13357558  0.39894037       0.005
   0.26715117  0.13357558  0.39894037       0.005
   0.33393896  0.13357558  0.39894037       0.005
   0.40072675  0.13357558  0.39894037       0.005
   0.46751454  0.13357558  0.39894037       0.005
   0.20036337  0.20036337  0.39894037       0.002
   0.26715117  0.20036337  0.39894037       0.005
   0.33393896  0.20036337  0.39894037       0.005
   0.40072675  0.20036337  0.39894037       0.005
   0.46751454  0.20036337  0.39894037       0.005
   0.26715117  0.26715117  0.39894037       0.002
   0.33393896  0.26715117  0.39894037       0.005
   0.40072675  0.26715117  0.39894037       0.005
   0.46751454  0.26715117  0.39894037       0.005
   0.33393896  0.33393896  0.39894037       0.002
   0.40072675  0.33393896  0.39894037       0.005
   0.46751454  0.33393896  0.39894037       0.005
   0.40072675  0.40072675  0.39894037       0.002
   0.46751454  0.40072675  0.39894037       0.005
   0.46751454  0.46751454  0.39894037       0.002
   0.00000000  0.00000000  0.46543043       0.001
   0.06678779  0.00000000  0.46543043       0.002
   0.13357558  0.00000000  0.46543043       0.002
   0.20036337  0.00000000  0.46543043       0.002
   0.26715117  0.00000000  0.46543043       0.002
   0.33393896  0.00000000  0.46543043       0.002
   0.40072675  0.00000000  0.46543043       0.002
   0.46751454  0.00000000  0.46543043       0.002
   0.06678779  0.06678779  0.46543043       0.002
   0.13357558  0.06678779  0.46543043       0.005
   0.20036337  0.06678779  0.46543043       0.005
   0.26715117  0.06678779  0.46543043       0.005
   0.33393896  0.06678779  0.46543043       0.005
   0.40072675  0.06678779  0.46543043       0.005
   0.46751454  0.06678779  0.46543043       0.005
   0.13357558  0.13357558  0.46543043       0.002
   0.20036337  0.13357558  0.46543043       0.005
   0.26715117  0.13357558  0.46543043       0.005
   0.33393896  0.13357558  0.46543043       0.005
   0.40072675  0.13357558  0.46543043       0.005
   0.46751454  0.13357558  0.46543043       0.005
   0.20036337  0.20036337  0.46543043       0.002
   0.26715117  0.20036337  0.46543043       0.005
   0.33393896  0.20036337  0.46543043       0.005
   0.40072675  0.20036337  0.46543043       0.005
   0.46751454  0.20036337  0.46543043       0.005
   0.26715117  0.26715117  0.46543043       0.002
   0.33393896  0.26715117  0.46543043       0.005
   0.40072675  0.26715117  0.46543043       0.005
   0.46751454  0.26715117  0.46543043       0.005
   0.33393896  0.33393896  0.46543043       0.002
   0.40072675  0.33393896  0.46543043       0.005
   0.46751454  0.33393896  0.46543043       0.005
   0.40072675  0.40072675  0.46543043       0.002
   0.46751454  0.40072675  0.46543043       0.005
   0.46751454  0.46751454  0.46543043       0.002
 
 k-points in reciprocal lattice and weights: Ni7CoMn5CrSn2                           
   0.00000000  0.00000000  0.00000000       0.000
   0.06666667  0.00000000  0.00000000       0.001
   0.13333333  0.00000000  0.00000000       0.001
   0.20000000  0.00000000  0.00000000       0.001
   0.26666667  0.00000000  0.00000000       0.001
   0.33333333  0.00000000  0.00000000       0.001
   0.40000000  0.00000000  0.00000000       0.001
   0.46666667  0.00000000  0.00000000       0.001
   0.06666667  0.06666667  0.00000000       0.001
   0.13333333  0.06666667  0.00000000       0.002
   0.20000000  0.06666667  0.00000000       0.002
   0.26666667  0.06666667  0.00000000       0.002
   0.33333333  0.06666667  0.00000000       0.002
   0.40000000  0.06666667  0.00000000       0.002
   0.46666667  0.06666667  0.00000000       0.002
   0.13333333  0.13333333  0.00000000       0.001
   0.20000000  0.13333333  0.00000000       0.002
   0.26666667  0.13333333  0.00000000       0.002
   0.33333333  0.13333333  0.00000000       0.002
   0.40000000  0.13333333  0.00000000       0.002
   0.46666667  0.13333333  0.00000000       0.002
   0.20000000  0.20000000  0.00000000       0.001
   0.26666667  0.20000000  0.00000000       0.002
   0.33333333  0.20000000  0.00000000       0.002
   0.40000000  0.20000000  0.00000000       0.002
   0.46666667  0.20000000  0.00000000       0.002
   0.26666667  0.26666667  0.00000000       0.001
   0.33333333  0.26666667  0.00000000       0.002
   0.40000000  0.26666667  0.00000000       0.002
   0.46666667  0.26666667  0.00000000       0.002
   0.33333333  0.33333333  0.00000000       0.001
   0.40000000  0.33333333  0.00000000       0.002
   0.46666667  0.33333333  0.00000000       0.002
   0.40000000  0.40000000  0.00000000       0.001
   0.46666667  0.40000000  0.00000000       0.002
   0.46666667  0.46666667  0.00000000       0.001
   0.00000000  0.00000000  0.06666667       0.001
   0.06666667  0.00000000  0.06666667       0.002
   0.13333333  0.00000000  0.06666667       0.002
   0.20000000  0.00000000  0.06666667       0.002
   0.26666667  0.00000000  0.06666667       0.002
   0.33333333  0.00000000  0.06666667       0.002
   0.40000000  0.00000000  0.06666667       0.002
   0.46666667  0.00000000  0.06666667       0.002
   0.06666667  0.06666667  0.06666667       0.002
   0.13333333  0.06666667  0.06666667       0.005
   0.20000000  0.06666667  0.06666667       0.005
   0.26666667  0.06666667  0.06666667       0.005
   0.33333333  0.06666667  0.06666667       0.005
   0.40000000  0.06666667  0.06666667       0.005
   0.46666667  0.06666667  0.06666667       0.005
   0.13333333  0.13333333  0.06666667       0.002
   0.20000000  0.13333333  0.06666667       0.005
   0.26666667  0.13333333  0.06666667       0.005
   0.33333333  0.13333333  0.06666667       0.005
   0.40000000  0.13333333  0.06666667       0.005
   0.46666667  0.13333333  0.06666667       0.005
   0.20000000  0.20000000  0.06666667       0.002
   0.26666667  0.20000000  0.06666667       0.005
   0.33333333  0.20000000  0.06666667       0.005
   0.40000000  0.20000000  0.06666667       0.005
   0.46666667  0.20000000  0.06666667       0.005
   0.26666667  0.26666667  0.06666667       0.002
   0.33333333  0.26666667  0.06666667       0.005
   0.40000000  0.26666667  0.06666667       0.005
   0.46666667  0.26666667  0.06666667       0.005
   0.33333333  0.33333333  0.06666667       0.002
[...]
    140      15.1924      0.00000
    141      15.2431      0.00000
    142      15.2737      0.00000
    143      15.2857      0.00000
    144      15.4149      0.00000
    145      18.1347      0.00000
    146      18.2183      0.00000
    147      18.2561      0.00000
    148      18.3037      0.00000
    149      22.3662      0.00000
    150      22.4464      0.00000


--------------------------------------------------------------------------------------------------------


 soft charge-density along one line, spin component           1
         0         1         2         3         4         5         6         7         8         9
 total charge-density along one line
 
 soft charge-density along one line, spin component           2
         0         1         2         3         4         5         6         7         8         9
 total charge-density along one line
 
 pseudopotential strength for first ion, spin component:           1
-44.952  -0.000  -0.000   7.588   0.000   0.000   0.000   0.000
 -0.000 -44.947  -0.000   0.000   7.587   0.000   0.019  -0.000
 -0.000  -0.000 -44.969   0.000   0.000   7.595   0.000   0.019
  7.588   0.000   0.000   5.644   0.000   0.000  -0.000  -0.000
  0.000   7.587   0.000   0.000   5.643   0.000  -0.008  -0.000
  0.000   0.000   7.595   0.000   0.000   5.641  -0.000  -0.008
  0.000   0.019   0.000  -0.000  -0.008  -0.000  -2.095  -0.000
  0.000  -0.000   0.019  -0.000  -0.000  -0.008  -0.000  -2.072
 -0.000  -0.000  -0.000   0.000  -0.000   0.000   0.000   0.000
  0.019   0.000   0.000  -0.008  -0.000  -0.000  -0.000  -0.000
  0.000  -0.000  -0.000  -0.000   0.000   0.000  -0.000   0.000
  0.000   0.018   0.000  -0.000  -0.007  -0.000  -2.610  -0.000
  0.000  -0.000   0.018  -0.000  -0.000  -0.007  -0.000  -2.587
 -0.000  -0.000  -0.000   0.000  -0.000   0.000   0.000   0.000
  0.018   0.000   0.000  -0.007  -0.000  -0.000  -0.000  -0.000
  0.000  -0.000  -0.000  -0.000   0.000   0.000  -0.000   0.000
 -0.000  -0.000  -0.000  -0.000  -0.000  -0.000   0.000   0.000
 -0.000  -0.000  -0.000  -0.000  -0.000  -0.000   0.000   0.000
 pseudopotential strength for first ion, spin component:           2
-43.254  -0.000  -0.000   6.872   0.000   0.000  -0.000   0.000
 -0.000 -43.246  -0.000   0.000   6.869   0.000  -0.006  -0.000
 -0.000  -0.000 -43.256   0.000   0.000   6.873   0.000  -0.006
  6.872   0.000   0.000   5.843   0.000   0.000   0.000  -0.000
  0.000   6.869   0.000   0.000   5.843   0.000   0.004   0.000
  0.000   0.000   6.873   0.000   0.000   5.842  -0.000   0.004
 -0.000  -0.006   0.000   0.000   0.004  -0.000  -0.727  -0.000
  0.000  -0.000  -0.006  -0.000   0.000   0.004  -0.000  -0.730
 -0.000  -0.000   0.000   0.000  -0.000  -0.000   0.000   0.000
 -0.006  -0.000   0.000   0.004   0.000  -0.000  -0.000   0.000
 -0.000  -0.000   0.000   0.000   0.000  -0.000  -0.000   0.000
 -0.000  -0.005   0.000   0.000   0.004  -0.000  -1.264  -0.000
  0.000  -0.000  -0.005  -0.000   0.000   0.004  -0.000  -1.267
 -0.000  -0.000   0.000   0.000  -0.000  -0.000   0.000   0.000
 -0.005  -0.000   0.000   0.004   0.000  -0.000  -0.000   0.000
 -0.000  -0.000   0.000   0.000   0.000  -0.000  -0.000   0.000
 -0.000  -0.000   0.000  -0.000  -0.000   0.000   0.000   0.000
 -0.000  -0.000   0.000  -0.000  -0.000   0.000   0.000   0.000
 total augmentation occupancy for first ion, spin component:           1
  1.993   0.000   0.000  -0.022   0.000   0.000   0.000   0.000   0.000   0.000   0.000   0.000   0.000   0.000  -0.001   0.000
  0.000   1.993   0.000   0.000  -0.022   0.000   0.000   0.000   0.000   0.000   0.000  -0.000   0.000   0.000   0.000   0.000
  0.000   0.000   1.993   0.000   0.000  -0.022   0.000   0.000   0.000   0.000   0.000   0.000  -0.000   0.000   0.000   0.000
 -0.022   0.000   0.000   0.181   0.000   0.000   0.000   0.000   0.000  -0.043   0.000   0.000   0.000   0.000   0.005   0.000
  0.000  -0.022   0.000   0.000   0.187   0.000  -0.046   0.000   0.000   0.000   0.000   0.006   0.000   0.000   0.000   0.000
  0.000   0.000  -0.022   0.000   0.000   0.189   0.000  -0.047   0.000   0.000   0.000   0.000   0.006   0.000   0.000   0.000
  0.000   0.000   0.000   0.000  -0.046   0.000   2.184   0.000   0.000   0.000   0.000  -1.252   0.000   0.000   0.000   0.000
  0.000   0.000   0.000   0.000   0.000  -0.047   0.000   2.175   0.000   0.000   0.000   0.000  -1.232   0.000   0.000   0.000
  0.000   0.000   0.000   0.000   0.000   0.000   0.000   0.000   2.357   0.000   0.003   0.000   0.000  -1.383   0.000  -0.006
  0.000   0.000   0.000  -0.043   0.000   0.000   0.000   0.000   0.000   2.204   0.000   0.000   0.000   0.000  -1.284   0.000
  0.000   0.000   0.000   0.000   0.000   0.000   0.000   0.000   0.003   0.000   2.372   0.000   0.000  -0.007   0.000  -1.397
  0.000  -0.000   0.000   0.000   0.006   0.000  -1.252   0.000   0.000   0.000   0.000   1.717   0.000   0.000   0.000   0.000
  0.000   0.000  -0.000   0.000   0.000   0.006   0.000  -1.232   0.000   0.000   0.000   0.000   1.708   0.000   0.000   0.000
  0.000   0.000   0.000   0.000   0.000   0.000   0.000   0.000  -1.383   0.000  -0.007   0.000   0.000   1.684   0.000  -0.001
 -0.001   0.000   0.000   0.005   0.000   0.000   0.000   0.000   0.000  -1.284   0.000   0.000   0.000   0.000   1.743   0.000
  0.000   0.000   0.000   0.000   0.000   0.000   0.000   0.000  -0.006   0.000  -1.397   0.000   0.000  -0.001   0.000   1.689
  0.000   0.000   0.000   0.000   0.000   0.000   0.000   0.000   0.005   0.000  -0.011   0.000   0.000   0.001   0.000   0.022
  0.000   0.000   0.000   0.000   0.000   0.000   0.000   0.000  -0.001   0.000  -0.000   0.000   0.000   0.000   0.000  -0.000
 total augmentation occupancy for first ion, spin component:           2
 -0.002   0.000   0.000  -0.007   0.000   0.000   0.000   0.000   0.000  -0.009   0.000   0.000   0.000   0.000   0.009   0.000
  0.000  -0.002   0.000   0.000  -0.007   0.000  -0.009   0.000   0.000   0.000   0.000   0.009   0.000   0.000   0.000   0.000
  0.000   0.000  -0.002   0.000   0.000  -0.007   0.000  -0.009   0.000   0.000   0.000   0.000   0.009   0.000   0.000   0.000
 -0.007   0.000   0.000  -0.007   0.000   0.000   0.000   0.000   0.000   0.057   0.000   0.000   0.000   0.000  -0.013   0.000
  0.000  -0.007   0.000   0.000  -0.012   0.000   0.055   0.000   0.000   0.000   0.000  -0.011   0.000   0.000   0.000   0.000
  0.000   0.000  -0.007   0.000   0.000  -0.012   0.000   0.055   0.000   0.000   0.000   0.000  -0.010   0.000   0.000   0.000
  0.000  -0.009   0.000   0.000   0.055   0.000   1.360   0.000   0.000   0.000   0.000  -0.407   0.000   0.000   0.000   0.000
  0.000   0.000  -0.009   0.000   0.000   0.055   0.000   1.329   0.000   0.000   0.000   0.000  -0.403   0.000   0.000   0.000
  0.000   0.000   0.000   0.000   0.000   0.000   0.000   0.000   1.850   0.000   0.002   0.000   0.000  -0.619   0.000   0.010
 -0.009   0.000   0.000   0.057   0.000   0.000   0.000   0.000   0.000   1.425   0.000   0.000   0.000   0.000  -0.423   0.000
  0.000   0.000   0.000   0.000   0.000   0.000   0.000   0.000   0.002   0.000   1.839   0.000   0.000   0.010   0.000  -0.607
  0.000   0.009   0.000   0.000  -0.011   0.000  -0.407   0.000   0.000   0.000   0.000  -0.123   0.000   0.000   0.000   0.000
  0.000   0.000   0.009   0.000   0.000  -0.010   0.000  -0.403   0.000   0.000   0.000   0.000  -0.125   0.000   0.000   0.000
  0.000   0.000   0.000   0.000   0.000   0.000   0.000   0.000  -0.619   0.000   0.010   0.000   0.000  -0.049   0.000  -0.006
  0.009   0.000   0.000  -0.013   0.000   0.000   0.000   0.000   0.000  -0.423   0.000   0.000   0.000   0.000  -0.130   0.000
  0.000   0.000   0.000   0.000   0.000   0.000   0.000   0.000   0.010   0.000  -0.607   0.000   0.000  -0.006   0.000  -0.053
  0.000   0.000   0.000   0.000   0.000   0.000   0.000   0.000   0.000   0.000  -0.005   0.000   0.000  -0.005   0.000  -0.012
  0.000   0.000   0.000   0.000   0.000   0.000   0.000   0.000  -0.001   0.000  -0.000   0.000   0.000   0.000   0.000   0.000


------------------------ aborting loop because EDIFF is reached ----------------------------------------





 total charge

# of ion       s       p       d       tot
------------------------------------------
    1        0.334   6.348   6.174  12.855
    2        0.334   6.348   6.174  12.855
    3        0.336   6.350   6.173  12.859
    4        0.336   6.350   6.173  12.859
    5        0.369   6.350   6.052  12.772
    6        0.369   6.350   6.052  12.772
    7        0.369   6.350   6.052  12.772
    8        0.369   6.350   6.052  12.772
    9        0.426   6.459   7.404  14.288
   10        0.425   6.458   7.389  14.271
   11        0.426   6.459   7.404  14.288
   12        0.425   6.458   7.389  14.271
   13        0.865   0.928  10.041  11.834
   14        0.865   0.928  10.041  11.834
   15        0.865   0.928  10.041  11.834
   16        0.865   0.928  10.041  11.834
--------------------------------------------------
tot          7.975  80.340 118.655 206.970



 magnetization (x)

# of ion       s       p       d       tot
------------------------------------------
    1       -0.002  -0.022   2.009   1.985
    2       -0.002  -0.022   2.009   1.985
    3        0.000  -0.018   2.049   2.032
    4        0.000  -0.018   2.049   2.032
    5        0.001  -0.016   2.624   2.609
    6        0.001  -0.016   2.624   2.609
    7        0.001  -0.016   2.624   2.609
    8        0.001  -0.016   2.624   2.609
    9       -0.010  -0.032   1.098   1.057
   10       -0.012  -0.035   1.181   1.134
   11       -0.010  -0.032   1.098   1.057
   12       -0.012  -0.035   1.181   1.134
   13       -0.006  -0.076  -0.007  -0.090
   14       -0.006  -0.076  -0.007  -0.090
   15       -0.006  -0.076  -0.007  -0.090
   16       -0.006  -0.076  -0.007  -0.090
--------------------------------------------------
tot         -0.070  -0.581  23.140  22.489
 
    CHARGE:  cpu time    3.8682: real time    3.8821
    FORLOC:  cpu time    0.0040: real time    0.0033
    FORNL :  cpu time   34.3341: real time   34.4352
    STRESS:  cpu time  102.9424: real time  103.2383
    FORCOR:  cpu time    0.0440: real time    0.0458
    FORHAR:  cpu time    0.0080: real time    0.0065
    MIXING:  cpu time    0.0040: real time    0.0019
    OFIELD:  cpu time    0.0000: real time    0.0000

  FORCE on cell =-STRESS in cart. coord.  units (eV):
  Direction    XX          YY          ZZ          XY          YZ          ZX
  --------------------------------------------------------------------------------------
  Alpha Z  1841.27105  1841.27105  1841.27105
  Ewald   -9557.95461 -9557.95461 -9555.28134    -0.00000     0.00000     0.00000
  Hartree  2939.99109  2939.99109  2945.85097    -0.00000    -0.00000    -0.00000
  E(xc)   -1431.10661 -1431.10661 -1431.11164     0.00000     0.00000     0.00000
  Local    2423.06296  2423.06296  2411.72330    -0.00000    -0.00000     0.00000
  n-local  -326.80573  -326.13883  -327.06827    -0.75214    -1.56515     0.00570
  augment  2207.68160  2207.68160  2209.77482     0.00000     0.00003     0.00003
  Kinetic  1901.10520  1905.64308  1904.81863    -1.34997    -2.37869    -0.01256
  Fock        0.00000     0.00000     0.00000     0.00000     0.00000     0.00000
  -------------------------------------------------------------------------------------
  Total      -0.15266    -0.15266    -0.02249     0.00000     0.00000     0.00000
  in kB      -1.29458    -1.29458    -0.19071     0.00000     0.00000     0.00000
  external pressure =       -0.93 kB  Pullay stress =        0.00 kB


 VOLUME and BASIS-vectors are now :
 -----------------------------------------------------------------------------
  energy-cutoff  :      500.00
  volume of cell :      188.93
      direct lattice vectors                 reciprocal lattice vectors
     5.729590084  0.000000000  0.000000000     0.174532556  0.000000000  0.000000000
     0.000000000  5.729590084  0.000000000     0.000000000  0.174532556  0.000000000
     0.000000000  0.000000000  5.755246127     0.000000000  0.000000000  0.173754515

  length of vectors
     5.729590084  5.729590084  5.755246127     0.174532556  0.174532556  0.173754515


 FORCES acting on ions
    electron-ion (+dipol)            ewald-force                    non-local-force                 convergence-correction
 -----------------------------------------------------------------------------------------------
   0.101E-07 -.393E-08 0.404E-09   0.102E-10 -.101E-10 -.313E-12   0.000E+00 0.000E+00 0.000E+00   -.223E-12 -.441E-13 -.225E-12
   0.393E-08 -.101E-07 -.435E-09   0.101E-10 -.101E-10 0.171E-12   0.000E+00 0.000E+00 0.000E+00   -.270E-12 0.307E-13 0.664E-12
   0.125E-07 -.391E-08 0.410E-09   0.105E-10 -.989E-11 0.000E+00   0.000E+00 0.000E+00 0.000E+00   0.188E-12 0.710E-13 -.221E-12
   0.392E-08 -.125E-07 -.424E-09   0.995E-11 -.103E-10 -.568E-13   0.000E+00 0.000E+00 0.000E+00   -.270E-12 -.758E-13 0.662E-12
   -.375E+02 0.375E+02 0.148E-10   0.381E+02 -.381E+02 0.214E-13   -.577E+00 0.577E+00 0.000E+00   0.936E-03 -.936E-03 0.357E-12
   -.375E+02 -.375E+02 0.658E-05   0.381E+02 0.381E+02 -.203E-11   -.577E+00 -.577E+00 0.434E-18   0.936E-03 0.936E-03 0.177E-11
   0.375E+02 0.375E+02 -.658E-05   -.381E+02 -.381E+02 0.206E-11   0.577E+00 0.577E+00 0.434E-18   -.936E-03 -.936E-03 -.156E-11
   0.375E+02 -.375E+02 0.390E-10   -.381E+02 0.381E+02 0.219E-13   0.577E+00 -.577E+00 0.000E+00   -.936E-03 0.936E-03 0.408E-12
   -.985E-07 -.669E-07 0.837E-09   0.110E-10 -.111E-10 -.568E-13   0.000E+00 0.000E+00 0.000E+00   0.309E-12 -.603E-13 -.189E-12
   0.669E-07 -.507E-07 -.836E-09   0.113E-10 -.108E-10 -.114E-12   0.000E+00 0.000E+00 0.000E+00   0.202E-12 -.128E-12 0.602E-12
   0.669E-07 0.985E-07 -.835E-09   0.110E-10 -.111E-10 0.853E-13   0.000E+00 0.000E+00 0.000E+00   0.278E-12 0.112E-12 0.733E-12
   0.507E-07 -.669E-07 0.829E-09   0.105E-10 -.111E-10 0.284E-13   0.000E+00 0.000E+00 0.000E+00   -.355E-12 0.331E-13 -.149E-12
   -.430E+02 0.430E+02 0.520E-11   0.430E+02 -.430E+02 -.277E-14   0.681E-01 -.681E-01 0.000E+00   0.166E-02 -.166E-02 -.142E-13
   0.430E+02 0.430E+02 0.371E-05   -.430E+02 -.430E+02 0.293E-13   -.681E-01 -.681E-01 0.000E+00   -.166E-02 -.166E-02 -.110E-12
   -.430E+02 -.430E+02 -.371E-05   0.430E+02 0.430E+02 0.617E-13   0.681E-01 0.681E-01 0.000E+00   0.166E-02 0.166E-02 0.738E-12
   0.430E+02 -.430E+02 0.275E-10   -.430E+02 0.430E+02 0.810E-13   -.681E-01 0.681E-01 0.108E-18   -.166E-02 0.166E-02 -.128E-13
 -----------------------------------------------------------------------------------------------
   -.911E-07 0.911E-07 0.126E-09   -.639E-13 -.277E-12 -.135E-13   -.111E-15 -.111E-15 0.976E-18   -.118E-11 0.360E-12 0.345E-11
 
 
 POSITION                                       TOTAL-FORCE (eV/Angst)
 -----------------------------------------------------------------------------------
      2.86480      0.00000      2.87762         0.000000      0.000000      0.000000
      2.86480      0.00000      0.00000         0.000000      0.000000      0.000000
      0.00000      0.00000      2.87762         0.000000      0.000000      0.000000
      2.86480      2.86480      0.00000         0.000000      0.000000      0.000000
      1.43619      1.42860      4.31643         0.003402     -0.003402     -0.000000
      1.43619      4.30099      1.43881         0.003402      0.003402      0.000000
      4.29340      1.42860      1.43881        -0.003402     -0.003402      0.000000
      4.29340      4.30099      4.31643        -0.003402      0.003402     -0.000000
      0.00000      2.86480      2.87762         0.000000      0.000000      0.000000
      0.00000      0.00000      0.00000         0.000000      0.000000      0.000000
      0.00000      2.86480      0.00000         0.000000      0.000000      0.000000
      2.86480      2.86480      2.87762         0.000000      0.000000      0.000000
      1.41556      1.44924      1.43881         0.002661     -0.002661     -0.000000
      4.31403      1.44924      4.31643        -0.002661     -0.002661      0.000000
      1.41556      4.28035      4.31643         0.002661      0.002661      0.000000
      4.31403      4.28035      1.43881        -0.002661      0.002661     -0.000000
 -----------------------------------------------------------------------------------
    total drift:                               -0.000000      0.000000      0.000000


--------------------------------------------------------------------------------------------------------



  FREE ENERGIE OF THE ION-ELECTRON SYSTEM (eV)
  ---------------------------------------------------
  free  energy   TOTEN  =      -108.24038033 eV

  energy  without entropy=     -108.23859500  energy(sigma->0) =     -108.23978522
 


--------------------------------------------------------------------------------------------------------


    POTLOK:  cpu time    0.1440: real time    0.1443


--------------------------------------------------------------------------------------------------------


     LOOP+:  cpu time 4192.0980: real time 4205.3705
    4ORBIT:  cpu time    0.0000: real time    0.0000



 total charge

# of ion       s       p       d       tot
------------------------------------------
    1        0.334   6.348   6.174  12.855
    2        0.334   6.348   6.174  12.855
    3        0.336   6.350   6.173  12.859
    4        0.336   6.350   6.173  12.859
    5        0.369   6.350   6.052  12.772
    6        0.369   6.350   6.052  12.772
    7        0.369   6.350   6.052  12.772
    8        0.369   6.350   6.052  12.772
    9        0.426   6.459   7.404  14.288
   10        0.425   6.458   7.389  14.271
   11        0.426   6.459   7.404  14.288
   12        0.425   6.458   7.389  14.271
   13        0.865   0.928  10.041  11.834
   14        0.865   0.928  10.041  11.834
   15        0.865   0.928  10.041  11.834
   16        0.865   0.928  10.041  11.834
--------------------------------------------------
tot          7.975  80.340 118.655 206.970



 magnetization (x)

# of ion       s       p       d       tot
------------------------------------------
    1       -0.002  -0.022   2.009   1.985
    2       -0.002  -0.022   2.009   1.985
    3        0.000  -0.018   2.049   2.032
    4        0.000  -0.018   2.049   2.032
    5        0.001  -0.016   2.624   2.609
    6        0.001  -0.016   2.624   2.609
    7        0.001  -0.016   2.624   2.609
    8        0.001  -0.016   2.624   2.609
    9       -0.010  -0.032   1.098   1.057
   10       -0.012  -0.035   1.181   1.134
   11       -0.010  -0.032   1.098   1.057
   12       -0.012  -0.035   1.181   1.134
   13       -0.006  -0.076  -0.007  -0.090
   14       -0.006  -0.076  -0.007  -0.090
   15       -0.006  -0.076  -0.007  -0.090
   16       -0.006  -0.076  -0.007  -0.090
--------------------------------------------------
tot         -0.070  -0.581  23.140  22.489
 

 total amount of memory used by VASP MPI-rank0   401767. kBytes
=======================================================================

   base      :      30000. kBytes
   nonlr-proj:       5018. kBytes
   fftplans  :       5234. kBytes
   grid      :       4732. kBytes
   one-center:        124. kBytes
   wavefun   :     356659. kBytes
 
  
  
 General timing and accounting informations for this job:
 ========================================================
  
                  Total CPU time used (sec):     4239.709
                            User time (sec):     4228.252
                          System time (sec):       11.457
                         Elapsed time (sec):     4253.446
  
                   Maximum memory used (kb):      486144.
                   Average memory used (kb):          N/A
  
                          Minor page faults:       123052
                          Major page faults:            0
                 Voluntary context switches:          980
