 vasp.6.2.0 18Jan21 (build Feb 24 2021 14:57:03) complex                        
  
 executed on             LinuxIFC date 2023.06.13  11:55:22
 running on   24 total cores
 distrk:  each k-point on   24 cores,    1 groups
 distr:  one band on NCORE=   6 cores,    4 groups


--------------------------------------------------------------------------------------------------------


 INCAR:
   SYSTEM = NiCoMnGa
   LCHARG = .TRUE.
   LWAVE = .FALSE.
   ICHARG = 2
   IBRION = 2
   ISIF = 3
   PREC = Accurate
   ENCUT = 500
   LREAL = A
   POTIM = 0.1
   EDIFF = 1e-6
   ISMEAR = 1
   SIGMA = 0.1
   ISPIN = 2
   LORBIT = 10
   ISYM = 2
   RWIGS = 8*1.164 4*1.302 4*1.217
   MAGMOM = 8*2.3 4*1.2 4*0
   NSW = 0
   NEDOS = 1500
   GGA_COMPAT = .TRUE.
   LMAXMIX = 6
   NELMDL = -6
   NELM = 160
   ADDGRID = .TRUE.
   NPAR = 4
   NCORE = 6
   AMIX = 0.18
   AMIX_MAG = 0.26
   BMIX = 0.0025
   BMIX_MAG = 0.005
   EDIFFG = 1E-3

 POTCAR:    PAW_PBE Fe_pv 02Aug2007               
 POTCAR:    PAW_PBE Co_pv 23Apr2009               
 POTCAR:     PAW_PBE Ga_d 06Jul2010               
 POTCAR:    PAW_PBE Fe_pv 02Aug2007               
   VRHFIN =Fe:  3pd7s1                                                                              
   LEXCH  = PE                                                                                      
   EATOM  =  2457.4239 eV,  180.6156 Ry                                                             
                                                                                                    
   TITEL  = PAW_PBE Fe_pv 02Aug2007                                                                 
   LULTRA =        F    use ultrasoft PP ?                                                          
   IUNSCR =        1    unscreen: 0-lin 1-nonlin 2-no                                               
   RPACOR =    1.750    partial core radius                                                         
   POMASS =   55.847; ZVAL   =   14.000    mass and valenz                                          
   RCORE  =    2.200    outmost cutoff radius                                                       
   RWIGS  =    2.200; RWIGS  =    1.164    wigner-seitz radius (au A)                               
   ENMAX  =  293.238; ENMIN  =  219.928 eV                                                          
   ICORE  =        3    local potential                                                             
   LCOR   =        T    correct aug charges                                                         
   LPAW   =        T    paw PP                                                                      
   EAUG   =  578.342                                                                                
   DEXC   =    0.000                                                                                
   RMAX   =    2.249    core radius for proj-oper                                                   
   RAUG   =    1.300    factor for augmentation sphere                                              
   RDEP   =    2.296    radius for radial grids                                                     
   RDEPT  =    1.766    core radius for aug-charge                                                  
                                                                                                    
   Atomic configuration                                                                             
    8 entries                                                                                       
     n  l   j            E        occ.                                                              
     1  0  0.50     -6993.8440   2.0000                                                             
     2  0  0.50      -814.6047   2.0000                                                             
     2  1  1.50      -693.3689   6.0000                                                             
     3  0  0.50       -89.4732   2.0000                                                             
     3  1  1.50       -55.6373   6.0000                                                             
     3  2  2.50        -3.8151   7.0000                                                             
     4  0  0.50        -4.2551   1.0000                                                             
     4  3  2.50        -1.3606   0.0000                                                             
   Description                                                                                      
     l       E           TYP  RCUT    TYP  RCUT                                                     
     1    -55.6372668     23  2.000                                                                 
     1     -5.4423304     23  2.000                                                                 
     2     -3.8151096     23  2.200                                                                 
     2     -5.1756922     23  2.200                                                                 
     0     -4.2550951     23  2.200                                                                 
     0     27.2116520     23  2.200                                                                 
     3     -1.3605826     23  2.200                                                                 
  local pseudopotential read in
  partial core-charges read in
  partial kinetic energy density read in
  atomic valenz-charges read in
  non local Contribution for L=           1  read in
    real space projection operators read in
  non local Contribution for L=           1  read in
    real space projection operators read in
  non local Contribution for L=           2  read in
    real space projection operators read in
  non local Contribution for L=           2  read in
    real space projection operators read in
  non local Contribution for L=           0  read in
    real space projection operators read in
  non local Contribution for L=           0  read in
    real space projection operators read in
    PAW grid and wavefunctions read in
 
   number of l-projection  operators is LMAX  =           6
   number of lm-projection operators is LMMAX =          18
 
 POTCAR:    PAW_PBE Co_pv 23Apr2009               
   VRHFIN =Co: 3pd7s1                                                                               
   LEXCH  = PE                                                                                      
   EATOM  =  2948.1334 eV,  216.6817 Ry                                                             
                                                                                                    
   TITEL  = PAW_PBE Co_pv 23Apr2009                                                                 
   LULTRA =        F    use ultrasoft PP ?                                                          
   IUNSCR =        1    unscreen: 0-lin 1-nonlin 2-no                                               
   RPACOR =    2.000    partial core radius                                                         
   POMASS =   58.933; ZVAL   =   15.000    mass and valenz                                          
   RCORE  =    2.300    outmost cutoff radius                                                       
   RWIGS  =    2.460; RWIGS  =    1.302    wigner-seitz radius (au A)                               
   ENMAX  =  271.042; ENMIN  =  203.281 eV                                                          
   ICORE  =        3    local potential                                                             
   LCOR   =        T    correct aug charges                                                         
   LPAW   =        T    paw PP                                                                      
   EAUG   =  543.066                                                                                
   DEXC   =    0.000                                                                                
   RMAX   =    2.360    core radius for proj-oper                                                   
   RAUG   =    1.300    factor for augmentation sphere                                              
   RDEP   =    2.393    radius for radial grids                                                     
   RDEPT  =    1.841    core radius for aug-charge                                                  
                                                                                                    
   Atomic configuration                                                                             
    8 entries                                                                                       
     n  l   j            E        occ.                                                              
     1  0  0.50     -7587.6674   2.0000                                                             
     2  0  0.50      -893.6084   2.0000                                                             
     2  1  1.50      -764.5805   6.0000                                                             
     3  0  0.50       -97.5973   2.0000                                                             
     3  1  1.50       -60.9648   6.0000                                                             
     3  2  2.50        -4.2382   8.0000                                                             
     4  0  0.50        -4.3746   1.0000                                                             
     4  3  2.50        -1.3606   0.0000                                                             
   Description                                                                                      
     l       E           TYP  RCUT    TYP  RCUT                                                     
     1    -60.9647990     23  2.000                                                                 
     1     -5.4423304     23  2.000                                                                 
     2     -4.2382362     23  2.300                                                                 
     2     -5.5988188     23  2.300                                                                 
     0     -4.3745797     23  2.300                                                                 
     0      5.7660125     23  2.300                                                                 
     3     -1.3605826     23  2.300                                                                 
  local pseudopotential read in
  partial core-charges read in
  partial kinetic energy density read in
  atomic valenz-charges read in
  non local Contribution for L=           1  read in
    real space projection operators read in
  non local Contribution for L=           1  read in
    real space projection operators read in
  non local Contribution for L=           2  read in
    real space projection operators read in
  non local Contribution for L=           2  read in
    real space projection operators read in
  non local Contribution for L=           0  read in
    real space projection operators read in
  non local Contribution for L=           0  read in
    real space projection operators read in
    PAW grid and wavefunctions read in
 
   number of l-projection  operators is LMAX  =           6
   number of lm-projection operators is LMMAX =          18
 
 POTCAR:     PAW_PBE Ga_d 06Jul2010               
   VRHFIN =Ga: s2p1                                                                                 
   LEXCH  = PE                                                                                      
   EATOM  =  2148.8298 eV,  157.9345 Ry                                                             
                                                                                                    
   TITEL  = PAW_PBE Ga_d 06Jul2010                                                                  
   LULTRA =        F    use ultrasoft PP ?                                                          
   IUNSCR =        1    unscreen: 0-lin 1-nonlin 2-no                                               
   RPACOR =    1.700    partial core radius                                                         
   POMASS =   69.723; ZVAL   =   13.000    mass and valenz                                          
   RCORE  =    2.300    outmost cutoff radius                                                       
   RWIGS  =    2.300; RWIGS  =    1.217    wigner-seitz radius (au A)                               
   ENMAX  =  282.691; ENMIN  =  212.018 eV                                                          
   ICORE  =        3    local potential                                                             
   LCOR   =        T    correct aug charges                                                         
   LPAW   =        T    paw PP                                                                      
   EAUG   =  490.690                                                                                
   DEXC   =    0.000                                                                                
   RMAX   =    2.341    core radius for proj-oper                                                   
   RAUG   =    1.300    factor for augmentation sphere                                              
   RDEP   =    2.413    radius for radial grids                                                     
   RDEPT  =    1.856    core radius for aug-charge                                                  
                                                                                                    
   Atomic configuration                                                                             
    9 entries                                                                                       
     n  l   j            E        occ.                                                              
     1  0  0.50    -10228.7831   2.0000                                                             
     2  0  0.50     -1262.1604   2.0000                                                             
     2  1  1.50     -1098.6333   6.0000                                                             
     3  0  0.50      -148.1110   2.0000                                                             
     3  1  1.50       -98.8436   6.0000                                                             
     3  2  2.50       -19.1549  10.0000                                                             
     4  0  0.50        -8.9483   2.0000                                                             
     4  1  0.50        -2.5791   1.0000                                                             
     4  3  2.50        -2.7416   0.0000                                                             
   Description                                                                                      
     l       E           TYP  RCUT    TYP  RCUT                                                     
     2    -19.1549037     23  2.300                                                                 
     2     -5.4423304     23  2.300                                                                 
     0     -8.9483111     23  2.300                                                                 
     0     68.0291300     23  2.300                                                                 
     1     -2.5790802     23  2.100                                                                 
     1     81.6349560     23  2.300                                                                 
     3      6.8029130     23  2.300                                                                 
  local pseudopotential read in
  partial core-charges read in
  partial kinetic energy density read in
  atomic valenz-charges read in
  non local Contribution for L=           2  read in
    real space projection operators read in
  non local Contribution for L=           2  read in
    real space projection operators read in
  non local Contribution for L=           0  read in
    real space projection operators read in
  non local Contribution for L=           0  read in
    real space projection operators read in
  non local Contribution for L=           1  read in
    real space projection operators read in
  non local Contribution for L=           1  read in
    real space projection operators read in
    PAW grid and wavefunctions read in
 
   number of l-projection  operators is LMAX  =           6
   number of lm-projection operators is LMMAX =          18
 
 Optimization of the real space projectors (new method)

 maximal supplied QI-value         = 17.01
 optimisation between [QCUT,QGAM] = [ 11.40, 22.79] = [ 36.36,145.44] Ry 
 Optimized for a Real-space Cutoff    1.47 Angstroem

   l    n(q)    QCUT    max X(q) W(low)/X(q) W(high)/X(q)  e(spline) 
   1     10    11.395     4.267    0.90E-04    0.11E-03    0.18E-06
   1     10    11.395     5.750    0.14E-03    0.15E-03    0.25E-06
   2      9    11.395    53.656    0.13E-03    0.36E-04    0.15E-06
   2      9    11.395    49.521    0.14E-03    0.36E-04    0.15E-06
   0     10    11.395    31.246    0.58E-04    0.17E-05    0.98E-07
   0     10    11.395    12.201    0.41E-04    0.11E-05    0.82E-07
 Optimization of the real space projectors (new method)

 maximal supplied QI-value         = 16.25
 optimisation between [QCUT,QGAM] = [ 11.38, 22.75] = [ 36.24,144.96] Ry 
 Optimized for a Real-space Cutoff    1.47 Angstroem

   l    n(q)    QCUT    max X(q) W(low)/X(q) W(high)/X(q)  e(spline) 
   1     10    11.376     4.946    0.88E-04    0.16E-03    0.15E-06
   1     10    11.376     5.991    0.13E-03    0.24E-03    0.21E-06
   2      9    11.376    46.947    0.87E-04    0.91E-04    0.20E-06
   2      9    11.376    42.928    0.91E-04    0.94E-04    0.20E-06
   0     10    11.376    68.324    0.58E-04    0.21E-04    0.82E-07
   0     10    11.376    36.926    0.52E-04    0.19E-04    0.78E-07
 Optimization of the real space projectors (new method)

 maximal supplied QI-value         = 16.25
 optimisation between [QCUT,QGAM] = [ 11.38, 22.75] = [ 36.24,144.96] Ry 
 Optimized for a Real-space Cutoff    1.43 Angstroem

   l    n(q)    QCUT    max X(q) W(low)/X(q) W(high)/X(q)  e(spline) 
   2      9    11.376     7.143    0.28E-04    0.12E-03    0.13E-06
   2      9    11.376     5.586    0.74E-04    0.22E-03    0.21E-06
   0     10    11.376    12.382    0.35E-04    0.14E-04    0.32E-07
   0     10    11.376     6.622    0.55E-04    0.29E-04    0.68E-07
   1      9    11.376     7.935    0.24E-03    0.22E-03    0.14E-06
   1      9    11.376     2.425    0.20E-03    0.19E-03    0.14E-06
  PAW_PBE Fe_pv 02Aug2007               :
 energy of atom  1       EATOM=-2457.4239
 kinetic energy error for atom=    0.0069 (will be added to EATOM!!)
  PAW_PBE Co_pv 23Apr2009               :
 energy of atom  2       EATOM=-2948.1334
 kinetic energy error for atom=    0.0060 (will be added to EATOM!!)
   PAW_PBE Ga_d 06Jul2010               :
 energy of atom  3       EATOM=-2148.8298
 kinetic energy error for atom=    0.0026 (will be added to EATOM!!)
 
 
 POSCAR: Heusler tetragonGa
  positions in direct lattice
  velocities in cartesian coordinates
 exchange correlation table for  LEXCH =        8
   RHO(1)=    0.500       N(1)  =     2000
   RHO(2)=  100.500       N(2)  =     4000
 


--------------------------------------------------------------------------------------------------------


 ion  position               nearest neighbor table
   1  0.500  0.000  0.500-   5 2.48   6 2.48   7 2.48   8 2.48  13 2.48  14 2.48  15 2.48  16 2.48

   2  0.000  0.500  0.500-   5 2.48   6 2.48   7 2.48   8 2.48  13 2.48  14 2.48  15 2.48  16 2.48

   3  0.500  0.500  0.000-   5 2.48   6 2.48   7 2.48   8 2.48  13 2.48  14 2.48  15 2.48  16 2.48

   4  0.000  0.000  0.000-   5 2.48   6 2.48   7 2.48   8 2.48  13 2.48  14 2.48  15 2.48  16 2.48

   5  0.250  0.250  0.750-   1 2.48   2 2.48   3 2.48   4 2.48   9 2.48  10 2.48  11 2.48  12 2.48

   6  0.250  0.750  0.250-   1 2.48   2 2.48   3 2.48   4 2.48   9 2.48  10 2.48  11 2.48  12 2.48

   7  0.750  0.250  0.250-   1 2.48   2 2.48   3 2.48   4 2.48   9 2.48  10 2.48  11 2.48  12 2.48

   8  0.750  0.750  0.750-   1 2.48   2 2.48   3 2.48   4 2.48   9 2.48  10 2.48  11 2.48  12 2.48

   9  0.500  0.000  0.000-   5 2.48   6 2.48   7 2.48   8 2.48  13 2.48  14 2.48  15 2.48  16 2.48

  10  0.000  0.500  0.000-   5 2.48   6 2.48   7 2.48   8 2.48  13 2.48  14 2.48  15 2.48  16 2.48

  11  0.000  0.000  0.500-   5 2.48   6 2.48   7 2.48   8 2.48  13 2.48  14 2.48  15 2.48  16 2.48

  12  0.500  0.500  0.500-   5 2.48   6 2.48   7 2.48   8 2.48  13 2.48  14 2.48  15 2.48  16 2.48

  13  0.250  0.250  0.250-   1 2.48   2 2.48   3 2.48   4 2.48   9 2.48  10 2.48  11 2.48  12 2.48

  14  0.750  0.250  0.750-   1 2.48   2 2.48   3 2.48   4 2.48   9 2.48  10 2.48  11 2.48  12 2.48

  15  0.250  0.750  0.750-   1 2.48   2 2.48   3 2.48   4 2.48   9 2.48  10 2.48  11 2.48  12 2.48

  16  0.750  0.750  0.250-   1 2.48   2 2.48   3 2.48   4 2.48   9 2.48  10 2.48  11 2.48  12 2.48

 
  LATTYP: Found a simple tetragonal cell.
 ALAT       =     5.7350368170
 C/A-ratio  =     0.9998227442
  
  Lattice vectors:
  
 A1 = (   5.7350368170,   0.0000000000,   0.0000000000)
 A2 = (   0.0000000000,   5.7350368170,   0.0000000000)
 A3 = (   0.0000000000,   0.0000000000,   5.7340202484)


Analysis of symmetry for initial positions (statically):
=====================================================================
 Subroutine PRICEL returns following result:
 
  LATTYP: Found a body centered tetragonal cell.
 ALAT       =     4.0552834237
 C/A-ratio  =     1.4139628848
  
  Lattice vectors:
  
 A1 = (   2.8675184085,   0.0000000000,  -2.8670101242)
 A2 = (  -2.8675184085,   0.0000000000,  -2.8670101242)
 A3 = (   0.0000000000,   2.8675184085,   2.8670101242)
 
   4 primitive cells build up your supercell.
 

 Routine SETGRP: Setting up the symmetry group for a 
 simple tetragonal supercell.


 Subroutine GETGRP returns: Found  8 space group operations
 (whereof  8 operations were pure point group operations)
 out of a pool of 16 trial point group operations.


The static configuration has the point symmetry D_2d.


Analysis of symmetry for dynamics (positions and initial velocities):
=====================================================================
 Subroutine PRICEL returns following result:
 
  LATTYP: Found a body centered tetragonal cell.
 ALAT       =     4.0552834237
 C/A-ratio  =     1.4139628848
  
  Lattice vectors:
  
 A1 = (   2.8675184085,   0.0000000000,  -2.8670101242)
 A2 = (  -2.8675184085,   0.0000000000,  -2.8670101242)
 A3 = (   0.0000000000,   2.8675184085,   2.8670101242)
 
   4 primitive cells build up your supercell.
 

 Routine SETGRP: Setting up the symmetry group for a 
 simple tetragonal supercell.


 Subroutine GETGRP returns: Found  8 space group operations
 (whereof  8 operations were pure point group operations)
 out of a pool of 16 trial point group operations.


The dynamic configuration has the point symmetry D_2d.


Analysis of structural, dynamic, and magnetic symmetry:
=====================================================================
 Subroutine PRICEL returns following result:
 
  LATTYP: Found a body centered tetragonal cell.
 ALAT       =     4.0552834237
 C/A-ratio  =     1.4139628848
  
  Lattice vectors:
  
 A1 = (   2.8675184085,   0.0000000000,  -2.8670101242)
 A2 = (  -2.8675184085,   0.0000000000,  -2.8670101242)
 A3 = (   0.0000000000,   2.8675184085,   2.8670101242)
 
   4 primitive cells build up your supercell.
 

 Routine SETGRP: Setting up the symmetry group for a 
 simple tetragonal supercell.


 Subroutine GETGRP returns: Found  8 space group operations
 (whereof  8 operations were pure point group operations)
 out of a pool of 16 trial point group operations.


The overall configuration has the point symmetry D_2d.


 Subroutine INISYM returns: Found  8 space group operations
 (whereof  8 operations are pure point group operations),
 and found     4 'primitive' translations


----------------------------------------------------------------------------------------

                                     Primitive cell                                     

  volume of cell :      47.1489

  direct lattice vectors                    reciprocal lattice vectors
     2.867518409  0.000000000 -2.867010124     0.174366797  0.174366797 -0.174397710
    -2.867518409  0.000000000 -2.867010124    -0.174366797  0.174366797 -0.174397710
     0.000000000  2.867518409  2.867010124     0.000000000  0.348733594  0.000000000

  length of vectors
     4.054924028  4.054924028  4.054924028     0.302030000  0.302030000  0.348733594

  position of ions in fractional coordinates (direct lattice)
     0.000000000  0.000000000  0.000000000
     0.750000000  0.250000000  0.500000000
     0.500000000  0.500000000  0.000000000
     0.250000000  0.750000000  0.500000000

  ion indices of the primitive-cell ions
   primitive index   ion index
                 1           1
                 2           5
                 3           9
                 4          13

----------------------------------------------------------------------------------------

 
 
 KPOINTS: Ni7CoMn5CrSn2                           

Automatic generation of k-mesh.
 Grid dimensions read from file:
 generate k-points for:   15   15   15

 Generating k-lattice:

  Cartesian coordinates                     Fractional coordinates (reciprocal lattice)
     0.011624453  0.000000000  0.000000000     0.066666667  0.000000000  0.000000000
     0.000000000  0.011624453  0.000000000     0.000000000  0.066666667  0.000000000
     0.000000000  0.000000000  0.011626514     0.000000000  0.000000000  0.066666667

  Length of vectors
     0.011624453  0.011624453  0.011626514

  Shift w.r.t. Gamma in fractional coordinates (k-lattice)
     0.000000000  0.000000000  0.000000000

 
 Subroutine IBZKPT returns following result:
 ===========================================
 
 Found    288 irreducible k-points:
 
 Following reciprocal coordinates:
            Coordinates               Weight
  0.000000  0.000000  0.000000      1.000000
  0.066667  0.000000  0.000000      4.000000
  0.133333  0.000000  0.000000      4.000000
  0.200000  0.000000  0.000000      4.000000
  0.266667  0.000000  0.000000      4.000000
  0.333333  0.000000  0.000000      4.000000
  0.400000  0.000000  0.000000      4.000000
  0.466667  0.000000  0.000000      4.000000
  0.066667  0.066667  0.000000      4.000000
  0.133333  0.066667  0.000000      8.000000
  0.200000  0.066667  0.000000      8.000000
  0.266667  0.066667  0.000000      8.000000
  0.333333  0.066667  0.000000      8.000000
  0.400000  0.066667  0.000000      8.000000
  0.466667  0.066667  0.000000      8.000000
  0.133333  0.133333  0.000000      4.000000
  0.200000  0.133333  0.000000      8.000000
  0.266667  0.133333  0.000000      8.000000
  0.333333  0.133333  0.000000      8.000000
  0.400000  0.133333  0.000000      8.000000
  0.466667  0.133333  0.000000      8.000000
  0.200000  0.200000  0.000000      4.000000
  0.266667  0.200000  0.000000      8.000000
  0.333333  0.200000  0.000000      8.000000
  0.400000  0.200000  0.000000      8.000000
  0.466667  0.200000  0.000000      8.000000
  0.266667  0.266667  0.000000      4.000000
  0.333333  0.266667  0.000000      8.000000
  0.400000  0.266667  0.000000      8.000000
  0.466667  0.266667  0.000000      8.000000
  0.333333  0.333333  0.000000      4.000000
  0.400000  0.333333  0.000000      8.000000
  0.466667  0.333333  0.000000      8.000000
  0.400000  0.400000  0.000000      4.000000
  0.466667  0.400000  0.000000      8.000000
  0.466667  0.466667  0.000000      4.000000
  0.000000  0.000000  0.066667      2.000000
  0.066667  0.000000  0.066667      8.000000
  0.133333  0.000000  0.066667      8.000000
  0.200000  0.000000  0.066667      8.000000
  0.266667  0.000000  0.066667      8.000000
  0.333333  0.000000  0.066667      8.000000
  0.400000  0.000000  0.066667      8.000000
  0.466667  0.000000  0.066667      8.000000
  0.066667  0.066667  0.066667      8.000000
  0.133333  0.066667  0.066667     16.000000
  0.200000  0.066667  0.066667     16.000000
  0.266667  0.066667  0.066667     16.000000
  0.333333  0.066667  0.066667     16.000000
  0.400000  0.066667  0.066667     16.000000
  0.466667  0.066667  0.066667     16.000000
  0.133333  0.133333  0.066667      8.000000
  0.200000  0.133333  0.066667     16.000000
  0.266667  0.133333  0.066667     16.000000
  0.333333  0.133333  0.066667     16.000000
  0.400000  0.133333  0.066667     16.000000
  0.466667  0.133333  0.066667     16.000000
  0.200000  0.200000  0.066667      8.000000
  0.266667  0.200000  0.066667     16.000000
  0.333333  0.200000  0.066667     16.000000
  0.400000  0.200000  0.066667     16.000000
  0.466667  0.200000  0.066667     16.000000
  0.266667  0.266667  0.066667      8.000000
  0.333333  0.266667  0.066667     16.000000
  0.400000  0.266667  0.066667     16.000000
  0.466667  0.266667  0.066667     16.000000
  0.333333  0.333333  0.066667      8.000000
  0.400000  0.333333  0.066667     16.000000
  0.466667  0.333333  0.066667     16.000000
  0.400000  0.400000  0.066667      8.000000
  0.466667  0.400000  0.066667     16.000000
  0.466667  0.466667  0.066667      8.000000
  0.000000  0.000000  0.133333      2.000000
  0.066667  0.000000  0.133333      8.000000
  0.133333  0.000000  0.133333      8.000000
  0.200000  0.000000  0.133333      8.000000
  0.266667  0.000000  0.133333      8.000000
  0.333333  0.000000  0.133333      8.000000
  0.400000  0.000000  0.133333      8.000000
  0.466667  0.000000  0.133333      8.000000
  0.066667  0.066667  0.133333      8.000000
  0.133333  0.066667  0.133333     16.000000
  0.200000  0.066667  0.133333     16.000000
  0.266667  0.066667  0.133333     16.000000
  0.333333  0.066667  0.133333     16.000000
  0.400000  0.066667  0.133333     16.000000
  0.466667  0.066667  0.133333     16.000000
  0.133333  0.133333  0.133333      8.000000
  0.200000  0.133333  0.133333     16.000000
  0.266667  0.133333  0.133333     16.000000
  0.333333  0.133333  0.133333     16.000000
  0.400000  0.133333  0.133333     16.000000
  0.466667  0.133333  0.133333     16.000000
  0.200000  0.200000  0.133333      8.000000
  0.266667  0.200000  0.133333     16.000000
  0.333333  0.200000  0.133333     16.000000
  0.400000  0.200000  0.133333     16.000000
  0.466667  0.200000  0.133333     16.000000
  0.266667  0.266667  0.133333      8.000000
  0.333333  0.266667  0.133333     16.000000
  0.400000  0.266667  0.133333     16.000000
  0.466667  0.266667  0.133333     16.000000
  0.333333  0.333333  0.133333      8.000000
  0.400000  0.333333  0.133333     16.000000
  0.466667  0.333333  0.133333     16.000000
  0.400000  0.400000  0.133333      8.000000
  0.466667  0.400000  0.133333     16.000000
  0.466667  0.466667  0.133333      8.000000
  0.000000  0.000000  0.200000      2.000000
  0.066667  0.000000  0.200000      8.000000
  0.133333  0.000000  0.200000      8.000000
  0.200000  0.000000  0.200000      8.000000
  0.266667  0.000000  0.200000      8.000000
  0.333333  0.000000  0.200000      8.000000
  0.400000  0.000000  0.200000      8.000000
  0.466667  0.000000  0.200000      8.000000
  0.066667  0.066667  0.200000      8.000000
  0.133333  0.066667  0.200000     16.000000
  0.200000  0.066667  0.200000     16.000000
  0.266667  0.066667  0.200000     16.000000
  0.333333  0.066667  0.200000     16.000000
  0.400000  0.066667  0.200000     16.000000
  0.466667  0.066667  0.200000     16.000000
  0.133333  0.133333  0.200000      8.000000
  0.200000  0.133333  0.200000     16.000000
  0.266667  0.133333  0.200000     16.000000
  0.333333  0.133333  0.200000     16.000000
  0.400000  0.133333  0.200000     16.000000
  0.466667  0.133333  0.200000     16.000000
  0.200000  0.200000  0.200000      8.000000
  0.266667  0.200000  0.200000     16.000000
  0.333333  0.200000  0.200000     16.000000
  0.400000  0.200000  0.200000     16.000000
  0.466667  0.200000  0.200000     16.000000
  0.266667  0.266667  0.200000      8.000000
  0.333333  0.266667  0.200000     16.000000
  0.400000  0.266667  0.200000     16.000000
  0.466667  0.266667  0.200000     16.000000
  0.333333  0.333333  0.200000      8.000000
  0.400000  0.333333  0.200000     16.000000
  0.466667  0.333333  0.200000     16.000000
  0.400000  0.400000  0.200000      8.000000
  0.466667  0.400000  0.200000     16.000000
  0.466667  0.466667  0.200000      8.000000
  0.000000  0.000000  0.266667      2.000000
  0.066667  0.000000  0.266667      8.000000
  0.133333  0.000000  0.266667      8.000000
  0.200000  0.000000  0.266667      8.000000
  0.266667  0.000000  0.266667      8.000000
  0.333333  0.000000  0.266667      8.000000
  0.400000  0.000000  0.266667      8.000000
  0.466667  0.000000  0.266667      8.000000
  0.066667  0.066667  0.266667      8.000000
  0.133333  0.066667  0.266667     16.000000
  0.200000  0.066667  0.266667     16.000000
  0.266667  0.066667  0.266667     16.000000
  0.333333  0.066667  0.266667     16.000000
  0.400000  0.066667  0.266667     16.000000
  0.466667  0.066667  0.266667     16.000000
  0.133333  0.133333  0.266667      8.000000
  0.200000  0.133333  0.266667     16.000000
  0.266667  0.133333  0.266667     16.000000
  0.333333  0.133333  0.266667     16.000000
  0.400000  0.133333  0.266667     16.000000
  0.466667  0.133333  0.266667     16.000000
  0.200000  0.200000  0.266667      8.000000
  0.266667  0.200000  0.266667     16.000000
  0.333333  0.200000  0.266667     16.000000
  0.400000  0.200000  0.266667     16.000000
  0.466667  0.200000  0.266667     16.000000
  0.266667  0.266667  0.266667      8.000000
  0.333333  0.266667  0.266667     16.000000
  0.400000  0.266667  0.266667     16.000000
  0.466667  0.266667  0.266667     16.000000
  0.333333  0.333333  0.266667      8.000000
  0.400000  0.333333  0.266667     16.000000
  0.466667  0.333333  0.266667     16.000000
  0.400000  0.400000  0.266667      8.000000
  0.466667  0.400000  0.266667     16.000000
  0.466667  0.466667  0.266667      8.000000
  0.000000  0.000000  0.333333      2.000000
  0.066667  0.000000  0.333333      8.000000
  0.133333  0.000000  0.333333      8.000000
  0.200000  0.000000  0.333333      8.000000
  0.266667  0.000000  0.333333      8.000000
  0.333333  0.000000  0.333333      8.000000
  0.400000  0.000000  0.333333      8.000000
  0.466667  0.000000  0.333333      8.000000
  0.066667  0.066667  0.333333      8.000000
  0.133333  0.066667  0.333333     16.000000
  0.200000  0.066667  0.333333     16.000000
  0.266667  0.066667  0.333333     16.000000
  0.333333  0.066667  0.333333     16.000000
  0.400000  0.066667  0.333333     16.000000
  0.466667  0.066667  0.333333     16.000000
  0.133333  0.133333  0.333333      8.000000
  0.200000  0.133333  0.333333     16.000000
  0.266667  0.133333  0.333333     16.000000
  0.333333  0.133333  0.333333     16.000000
  0.400000  0.133333  0.333333     16.000000
  0.466667  0.133333  0.333333     16.000000
  0.200000  0.200000  0.333333      8.000000
  0.266667  0.200000  0.333333     16.000000
  0.333333  0.200000  0.333333     16.000000
  0.400000  0.200000  0.333333     16.000000
  0.466667  0.200000  0.333333     16.000000
  0.266667  0.266667  0.333333      8.000000
  0.333333  0.266667  0.333333     16.000000
  0.400000  0.266667  0.333333     16.000000
  0.466667  0.266667  0.333333     16.000000
  0.333333  0.333333  0.333333      8.000000
  0.400000  0.333333  0.333333     16.000000
  0.466667  0.333333  0.333333     16.000000
  0.400000  0.400000  0.333333      8.000000
  0.466667  0.400000  0.333333     16.000000
  0.466667  0.466667  0.333333      8.000000
  0.000000  0.000000  0.400000      2.000000
  0.066667  0.000000  0.400000      8.000000
  0.133333  0.000000  0.400000      8.000000
  0.200000  0.000000  0.400000      8.000000
  0.266667  0.000000  0.400000      8.000000
  0.333333  0.000000  0.400000      8.000000
  0.400000  0.000000  0.400000      8.000000
  0.466667  0.000000  0.400000      8.000000
  0.066667  0.066667  0.400000      8.000000
  0.133333  0.066667  0.400000     16.000000
  0.200000  0.066667  0.400000     16.000000
  0.266667  0.066667  0.400000     16.000000
  0.333333  0.066667  0.400000     16.000000
  0.400000  0.066667  0.400000     16.000000
  0.466667  0.066667  0.400000     16.000000
  0.133333  0.133333  0.400000      8.000000
  0.200000  0.133333  0.400000     16.000000
  0.266667  0.133333  0.400000     16.000000
  0.333333  0.133333  0.400000     16.000000
  0.400000  0.133333  0.400000     16.000000
  0.466667  0.133333  0.400000     16.000000
  0.200000  0.200000  0.400000      8.000000
  0.266667  0.200000  0.400000     16.000000
  0.333333  0.200000  0.400000     16.000000
  0.400000  0.200000  0.400000     16.000000
  0.466667  0.200000  0.400000     16.000000
  0.266667  0.266667  0.400000      8.000000
  0.333333  0.266667  0.400000     16.000000
  0.400000  0.266667  0.400000     16.000000
  0.466667  0.266667  0.400000     16.000000
  0.333333  0.333333  0.400000      8.000000
  0.400000  0.333333  0.400000     16.000000
  0.466667  0.333333  0.400000     16.000000
  0.400000  0.400000  0.400000      8.000000
  0.466667  0.400000  0.400000     16.000000
  0.466667  0.466667  0.400000      8.000000
  0.000000  0.000000  0.466667      2.000000
  0.066667  0.000000  0.466667      8.000000
  0.133333  0.000000  0.466667      8.000000
  0.200000  0.000000  0.466667      8.000000
  0.266667  0.000000  0.466667      8.000000
  0.333333  0.000000  0.466667      8.000000
  0.400000  0.000000  0.466667      8.000000
  0.466667  0.000000  0.466667      8.000000
  0.066667  0.066667  0.466667      8.000000
  0.133333  0.066667  0.466667     16.000000
  0.200000  0.066667  0.466667     16.000000
  0.266667  0.066667  0.466667     16.000000
  0.333333  0.066667  0.466667     16.000000
  0.400000  0.066667  0.466667     16.000000
  0.466667  0.066667  0.466667     16.000000
  0.133333  0.133333  0.466667      8.000000
  0.200000  0.133333  0.466667     16.000000
  0.266667  0.133333  0.466667     16.000000
  0.333333  0.133333  0.466667     16.000000
  0.400000  0.133333  0.466667     16.000000
  0.466667  0.133333  0.466667     16.000000
  0.200000  0.200000  0.466667      8.000000
  0.266667  0.200000  0.466667     16.000000
  0.333333  0.200000  0.466667     16.000000
  0.400000  0.200000  0.466667     16.000000
  0.466667  0.200000  0.466667     16.000000
  0.266667  0.266667  0.466667      8.000000
  0.333333  0.266667  0.466667     16.000000
  0.400000  0.266667  0.466667     16.000000
  0.466667  0.266667  0.466667     16.000000
  0.333333  0.333333  0.466667      8.000000
  0.400000  0.333333  0.466667     16.000000
  0.466667  0.333333  0.466667     16.000000
  0.400000  0.400000  0.466667      8.000000
  0.466667  0.400000  0.466667     16.000000
  0.466667  0.466667  0.466667      8.000000
 
 Following cartesian coordinates:
            Coordinates               Weight
  0.000000  0.000000  0.000000      1.000000
  0.066724  0.000000  0.000000      4.000000
  0.133449  0.000000  0.000000      4.000000
  0.200173  0.000000  0.000000      4.000000
  0.266897  0.000000  0.000000      4.000000
  0.333622  0.000000  0.000000      4.000000
  0.400346  0.000000  0.000000      4.000000
  0.467071  0.000000  0.000000      4.000000
  0.066724  0.066724  0.000000      4.000000
  0.133449  0.066724  0.000000      8.000000
  0.200173  0.066724  0.000000      8.000000
  0.266897  0.066724  0.000000      8.000000
  0.333622  0.066724  0.000000      8.000000
  0.400346  0.066724  0.000000      8.000000
  0.467071  0.066724  0.000000      8.000000
  0.133449  0.133449  0.000000      4.000000
  0.200173  0.133449  0.000000      8.000000
  0.266897  0.133449  0.000000      8.000000
  0.333622  0.133449  0.000000      8.000000
  0.400346  0.133449  0.000000      8.000000
  0.467071  0.133449  0.000000      8.000000
  0.200173  0.200173  0.000000      4.000000
  0.266897  0.200173  0.000000      8.000000
  0.333622  0.200173  0.000000      8.000000
  0.400346  0.200173  0.000000      8.000000
  0.467071  0.200173  0.000000      8.000000
  0.266897  0.266897  0.000000      4.000000
  0.333622  0.266897  0.000000      8.000000
  0.400346  0.266897  0.000000      8.000000
  0.467071  0.266897  0.000000      8.000000
  0.333622  0.333622  0.000000      4.000000
  0.400346  0.333622  0.000000      8.000000
  0.467071  0.333622  0.000000      8.000000
  0.400346  0.400346  0.000000      4.000000
  0.467071  0.400346  0.000000      8.000000
  0.467071  0.467071  0.000000      4.000000
  0.000000  0.000000  0.066736      2.000000
  0.066724  0.000000  0.066736      8.000000
  0.133449  0.000000  0.066736      8.000000
  0.200173  0.000000  0.066736      8.000000
  0.266897  0.000000  0.066736      8.000000
  0.333622  0.000000  0.066736      8.000000
  0.400346  0.000000  0.066736      8.000000
  0.467071  0.000000  0.066736      8.000000
  0.066724  0.066724  0.066736      8.000000
  0.133449  0.066724  0.066736     16.000000
  0.200173  0.066724  0.066736     16.000000
  0.266897  0.066724  0.066736     16.000000
  0.333622  0.066724  0.066736     16.000000
  0.400346  0.066724  0.066736     16.000000
  0.467071  0.066724  0.066736     16.000000
  0.133449  0.133449  0.066736      8.000000
  0.200173  0.133449  0.066736     16.000000
  0.266897  0.133449  0.066736     16.000000
  0.333622  0.133449  0.066736     16.000000
  0.400346  0.133449  0.066736     16.000000
  0.467071  0.133449  0.066736     16.000000
  0.200173  0.200173  0.066736      8.000000
  0.266897  0.200173  0.066736     16.000000
  0.333622  0.200173  0.066736     16.000000
  0.400346  0.200173  0.066736     16.000000
  0.467071  0.200173  0.066736     16.000000
  0.266897  0.266897  0.066736      8.000000
  0.333622  0.266897  0.066736     16.000000
  0.400346  0.266897  0.066736     16.000000
  0.467071  0.266897  0.066736     16.000000
  0.333622  0.333622  0.066736      8.000000
  0.400346  0.333622  0.066736     16.000000
  0.467071  0.333622  0.066736     16.000000
  0.400346  0.400346  0.066736      8.000000
  0.467071  0.400346  0.066736     16.000000
  0.467071  0.467071  0.066736      8.000000
  0.000000  0.000000  0.133472      2.000000
  0.066724  0.000000  0.133472      8.000000
  0.133449  0.000000  0.133472      8.000000
  0.200173  0.000000  0.133472      8.000000
  0.266897  0.000000  0.133472      8.000000
  0.333622  0.000000  0.133472      8.000000
  0.400346  0.000000  0.133472      8.000000
  0.467071  0.000000  0.133472      8.000000
  0.066724  0.066724  0.133472      8.000000
  0.133449  0.066724  0.133472     16.000000
  0.200173  0.066724  0.133472     16.000000
  0.266897  0.066724  0.133472     16.000000
  0.333622  0.066724  0.133472     16.000000
  0.400346  0.066724  0.133472     16.000000
  0.467071  0.066724  0.133472     16.000000
  0.133449  0.133449  0.133472      8.000000
  0.200173  0.133449  0.133472     16.000000
  0.266897  0.133449  0.133472     16.000000
  0.333622  0.133449  0.133472     16.000000
  0.400346  0.133449  0.133472     16.000000
  0.467071  0.133449  0.133472     16.000000
  0.200173  0.200173  0.133472      8.000000
  0.266897  0.200173  0.133472     16.000000
  0.333622  0.200173  0.133472     16.000000
  0.400346  0.200173  0.133472     16.000000
  0.467071  0.200173  0.133472     16.000000
  0.266897  0.266897  0.133472      8.000000
  0.333622  0.266897  0.133472     16.000000
  0.400346  0.266897  0.133472     16.000000
  0.467071  0.266897  0.133472     16.000000
  0.333622  0.333622  0.133472      8.000000
  0.400346  0.333622  0.133472     16.000000
  0.467071  0.333622  0.133472     16.000000
  0.400346  0.400346  0.133472      8.000000
  0.467071  0.400346  0.133472     16.000000
  0.467071  0.467071  0.133472      8.000000
  0.000000  0.000000  0.200209      2.000000
  0.066724  0.000000  0.200209      8.000000
  0.133449  0.000000  0.200209      8.000000
  0.200173  0.000000  0.200209      8.000000
  0.266897  0.000000  0.200209      8.000000
  0.333622  0.000000  0.200209      8.000000
  0.400346  0.000000  0.200209      8.000000
  0.467071  0.000000  0.200209      8.000000
  0.066724  0.066724  0.200209      8.000000
  0.133449  0.066724  0.200209     16.000000
  0.200173  0.066724  0.200209     16.000000
  0.266897  0.066724  0.200209     16.000000
  0.333622  0.066724  0.200209     16.000000
  0.400346  0.066724  0.200209     16.000000
  0.467071  0.066724  0.200209     16.000000
  0.133449  0.133449  0.200209      8.000000
  0.200173  0.133449  0.200209     16.000000
  0.266897  0.133449  0.200209     16.000000
  0.333622  0.133449  0.200209     16.000000
  0.400346  0.133449  0.200209     16.000000
  0.467071  0.133449  0.200209     16.000000
  0.200173  0.200173  0.200209      8.000000
  0.266897  0.200173  0.200209     16.000000
  0.333622  0.200173  0.200209     16.000000
  0.400346  0.200173  0.200209     16.000000
  0.467071  0.200173  0.200209     16.000000
  0.266897  0.266897  0.200209      8.000000
  0.333622  0.266897  0.200209     16.000000
  0.400346  0.266897  0.200209     16.000000
  0.467071  0.266897  0.200209     16.000000
  0.333622  0.333622  0.200209      8.000000
  0.400346  0.333622  0.200209     16.000000
  0.467071  0.333622  0.200209     16.000000
  0.400346  0.400346  0.200209      8.000000
  0.467071  0.400346  0.200209     16.000000
  0.467071  0.467071  0.200209      8.000000
  0.000000  0.000000  0.266945      2.000000
  0.066724  0.000000  0.266945      8.000000
  0.133449  0.000000  0.266945      8.000000
  0.200173  0.000000  0.266945      8.000000
  0.266897  0.000000  0.266945      8.000000
  0.333622  0.000000  0.266945      8.000000
  0.400346  0.000000  0.266945      8.000000
  0.467071  0.000000  0.266945      8.000000
  0.066724  0.066724  0.266945      8.000000
  0.133449  0.066724  0.266945     16.000000
  0.200173  0.066724  0.266945     16.000000
  0.266897  0.066724  0.266945     16.000000
  0.333622  0.066724  0.266945     16.000000
  0.400346  0.066724  0.266945     16.000000
  0.467071  0.066724  0.266945     16.000000
  0.133449  0.133449  0.266945      8.000000
  0.200173  0.133449  0.266945     16.000000
  0.266897  0.133449  0.266945     16.000000
  0.333622  0.133449  0.266945     16.000000
  0.400346  0.133449  0.266945     16.000000
  0.467071  0.133449  0.266945     16.000000
  0.200173  0.200173  0.266945      8.000000
  0.266897  0.200173  0.266945     16.000000
  0.333622  0.200173  0.266945     16.000000
  0.400346  0.200173  0.266945     16.000000
  0.467071  0.200173  0.266945     16.000000
  0.266897  0.266897  0.266945      8.000000
  0.333622  0.266897  0.266945     16.000000
  0.400346  0.266897  0.266945     16.000000
  0.467071  0.266897  0.266945     16.000000
  0.333622  0.333622  0.266945      8.000000
  0.400346  0.333622  0.266945     16.000000
  0.467071  0.333622  0.266945     16.000000
  0.400346  0.400346  0.266945      8.000000
  0.467071  0.400346  0.266945     16.000000
  0.467071  0.467071  0.266945      8.000000
  0.000000  0.000000  0.333681      2.000000
  0.066724  0.000000  0.333681      8.000000
  0.133449  0.000000  0.333681      8.000000
  0.200173  0.000000  0.333681      8.000000
  0.266897  0.000000  0.333681      8.000000
  0.333622  0.000000  0.333681      8.000000
  0.400346  0.000000  0.333681      8.000000
  0.467071  0.000000  0.333681      8.000000
  0.066724  0.066724  0.333681      8.000000
  0.133449  0.066724  0.333681     16.000000
  0.200173  0.066724  0.333681     16.000000
  0.266897  0.066724  0.333681     16.000000
  0.333622  0.066724  0.333681     16.000000
  0.400346  0.066724  0.333681     16.000000
  0.467071  0.066724  0.333681     16.000000
  0.133449  0.133449  0.333681      8.000000
  0.200173  0.133449  0.333681     16.000000
  0.266897  0.133449  0.333681     16.000000
  0.333622  0.133449  0.333681     16.000000
  0.400346  0.133449  0.333681     16.000000
  0.467071  0.133449  0.333681     16.000000
  0.200173  0.200173  0.333681      8.000000
  0.266897  0.200173  0.333681     16.000000
  0.333622  0.200173  0.333681     16.000000
  0.400346  0.200173  0.333681     16.000000
  0.467071  0.200173  0.333681     16.000000
  0.266897  0.266897  0.333681      8.000000
  0.333622  0.266897  0.333681     16.000000
  0.400346  0.266897  0.333681     16.000000
  0.467071  0.266897  0.333681     16.000000
  0.333622  0.333622  0.333681      8.000000
  0.400346  0.333622  0.333681     16.000000
  0.467071  0.333622  0.333681     16.000000
  0.400346  0.400346  0.333681      8.000000
  0.467071  0.400346  0.333681     16.000000
  0.467071  0.467071  0.333681      8.000000
  0.000000  0.000000  0.400417      2.000000
  0.066724  0.000000  0.400417      8.000000
  0.133449  0.000000  0.400417      8.000000
  0.200173  0.000000  0.400417      8.000000
  0.266897  0.000000  0.400417      8.000000
  0.333622  0.000000  0.400417      8.000000
  0.400346  0.000000  0.400417      8.000000
  0.467071  0.000000  0.400417      8.000000
  0.066724  0.066724  0.400417      8.000000
  0.133449  0.066724  0.400417     16.000000
  0.200173  0.066724  0.400417     16.000000
  0.266897  0.066724  0.400417     16.000000
  0.333622  0.066724  0.400417     16.000000
  0.400346  0.066724  0.400417     16.000000
  0.467071  0.066724  0.400417     16.000000
  0.133449  0.133449  0.400417      8.000000
  0.200173  0.133449  0.400417     16.000000
  0.266897  0.133449  0.400417     16.000000
  0.333622  0.133449  0.400417     16.000000
  0.400346  0.133449  0.400417     16.000000
  0.467071  0.133449  0.400417     16.000000
  0.200173  0.200173  0.400417      8.000000
  0.266897  0.200173  0.400417     16.000000
  0.333622  0.200173  0.400417     16.000000
  0.400346  0.200173  0.400417     16.000000
  0.467071  0.200173  0.400417     16.000000
  0.266897  0.266897  0.400417      8.000000
  0.333622  0.266897  0.400417     16.000000
  0.400346  0.266897  0.400417     16.000000
  0.467071  0.266897  0.400417     16.000000
  0.333622  0.333622  0.400417      8.000000
  0.400346  0.333622  0.400417     16.000000
  0.467071  0.333622  0.400417     16.000000
  0.400346  0.400346  0.400417      8.000000
  0.467071  0.400346  0.400417     16.000000
  0.467071  0.467071  0.400417      8.000000
  0.000000  0.000000  0.467153      2.000000
  0.066724  0.000000  0.467153      8.000000
  0.133449  0.000000  0.467153      8.000000
  0.200173  0.000000  0.467153      8.000000
  0.266897  0.000000  0.467153      8.000000
  0.333622  0.000000  0.467153      8.000000
  0.400346  0.000000  0.467153      8.000000
  0.467071  0.000000  0.467153      8.000000
  0.066724  0.066724  0.467153      8.000000
  0.133449  0.066724  0.467153     16.000000
  0.200173  0.066724  0.467153     16.000000
  0.266897  0.066724  0.467153     16.000000
  0.333622  0.066724  0.467153     16.000000
  0.400346  0.066724  0.467153     16.000000
  0.467071  0.066724  0.467153     16.000000
  0.133449  0.133449  0.467153      8.000000
  0.200173  0.133449  0.467153     16.000000
  0.266897  0.133449  0.467153     16.000000
  0.333622  0.133449  0.467153     16.000000
  0.400346  0.133449  0.467153     16.000000
  0.467071  0.133449  0.467153     16.000000
  0.200173  0.200173  0.467153      8.000000
  0.266897  0.200173  0.467153     16.000000
  0.333622  0.200173  0.467153     16.000000
  0.400346  0.200173  0.467153     16.000000
  0.467071  0.200173  0.467153     16.000000
  0.266897  0.266897  0.467153      8.000000
  0.333622  0.266897  0.467153     16.000000
  0.400346  0.266897  0.467153     16.000000
  0.467071  0.266897  0.467153     16.000000
  0.333622  0.333622  0.467153      8.000000
  0.400346  0.333622  0.467153     16.000000
  0.467071  0.333622  0.467153     16.000000
  0.400346  0.400346  0.467153      8.000000
  0.467071  0.400346  0.467153     16.000000
  0.467071  0.467071  0.467153      8.000000
 


--------------------------------------------------------------------------------------------------------




 Dimension of arrays:
   k-points           NKPTS =    288   k-points in BZ     NKDIM =    288   number of bands    NBANDS=    148
   number of dos      NEDOS =   1500   number of ions     NIONS =     16
   non local maximal  LDIM  =      6   non local SUM 2l+1 LMDIM =     18
   total plane-waves  NPLWV =  74088
   max r-space proj   IRMAX =   5324   max aug-charges    IRDMAX= 119286
   dimension x,y,z NGX =    42 NGY =   42 NGZ =   42
   dimension x,y,z NGXF=    84 NGYF=   84 NGZF=   84
   support grid    NGXF=   168 NGYF=  168 NGZF=  168
   ions per type =               8   4   4
   NGX,Y,Z   is equivalent  to a cutoff of  12.17, 12.17, 12.18 a.u.
   NGXF,Y,Z  is equivalent  to a cutoff of  24.35, 24.35, 24.35 a.u.

 SYSTEM =  NiCoMnGa                                
 POSCAR =  Heusler tetragonGa                      

 Startparameter for this run:
   NWRITE =      2    write-flag & timer
   PREC   = accura    normal or accurate (medium, high low for compatibility)
   ISTART =      0    job   : 0-new  1-cont  2-samecut
   ICHARG =      2    charge: 1-file 2-atom 10-const
   ISPIN  =      2    spin polarized calculation?
   LNONCOLLINEAR =      F non collinear calculations
   LSORBIT =      F    spin-orbit coupling
   INIWAV =      1    electr: 0-lowe 1-rand  2-diag
   LASPH  =      F    aspherical Exc in radial PAW
   METAGGA=      F    non-selfconsistent MetaGGA calc.

 Electronic Relaxation 1
   ENCUT  =  500.0 eV  36.75 Ry    6.06 a.u.  10.46 10.46 10.45*2*pi/ulx,y,z
   ENINI  =  500.0     initial cutoff
   ENAUG  =  578.3 eV  augmentation charge cutoff
   NELM   =    160;   NELMIN=  2; NELMDL= -6     # of ELM steps 
   EDIFF  = 0.1E-05   stopping-criterion for ELM
   LREAL  =      T    real-space projection
   NLSPLINE    = F    spline interpolate recip. space projectors
   LCOMPAT=      F    compatible to vasp.4.4
   GGA_COMPAT  = T    GGA compatible to vasp.4.4-vasp.4.6
   LMAXPAW     = -100 max onsite density
   LMAXMIX     =    6 max onsite mixed and CHGCAR
   VOSKOWN=      0    Vosko Wilk Nusair interpolation
   ROPT   =   -0.00025  -0.00025  -0.00025
 Ionic relaxation
   EDIFFG = 0.1E-02   stopping-criterion for IOM
   NSW    =      0    number of steps for IOM
   NBLOCK =      1;   KBLOCK =      1    inner block; outer block 
   IBRION =     -1    ionic relax: 0-MD 1-quasi-New 2-CG
   NFREE  =      1    steps in history (QN), initial steepest desc. (CG)
   ISIF   =      3    stress and relaxation
   IWAVPR =     10    prediction:  0-non 1-charg 2-wave 3-comb
   ISYM   =      2    0-nonsym 1-usesym 2-fastsym
   LCORR  =      T    Harris-Foulkes like correction to forces

   POTIM  = 0.1000    time-step for ionic-motion
   TEIN   =    0.0    initial temperature
   TEBEG  =    0.0;   TEEND  =   0.0 temperature during run
   SMASS  =  -3.00    Nose mass-parameter (am)
   estimated Nose-frequenzy (Omega)   =  0.10E-29 period in steps = 0.63E+47 mass=  -0.752E-27a.u.
   SCALEE = 1.0000    scale energy and forces
   NPACO  =    256;   APACO  = 16.0  distance and # of slots for P.C.
   PSTRESS=    0.0 pullay stress

  Mass of Ions in am
   POMASS =  55.85 58.93 69.72
  Ionic Valenz
   ZVAL   =  14.00 15.00 13.00
  Atomic Wigner-Seitz radii
   RWIGS  =   1.16  1.16  1.16
  virtual crystal weights 
   VCA    =   1.00  1.00  1.00
   NELECT =     224.0000    total number of electrons
   NUPDOWN=      -1.0000    fix difference up-down

 DOS related values:
   EMIN   =  10.00;   EMAX   =-10.00  energy-range for DOS
   EFERMI =   0.00
   ISMEAR =     1;   SIGMA  =   0.10  broadening in eV -4-tet -1-fermi 0-gaus

 Electronic relaxation 2 (details)
   IALGO  =     38    algorithm
   LDIAG  =      T    sub-space diagonalisation (order eigenvalues)
   LSUBROT=      F    optimize rotation matrix (better conditioning)
   TURBO    =      0    0=normal 1=particle mesh
   IRESTART =      0    0=no restart 2=restart with 2 vectors
   NREBOOT  =      0    no. of reboots
   NMIN     =      0    reboot dimension
   EREF     =   0.00    reference energy to select bands
   IMIX   =      4    mixing-type and parameters
     AMIX     =   0.18;   BMIX     =  0.00
     AMIX_MAG =   0.26;   BMIX_MAG =  0.01
     AMIN     =   0.10
     WC   =   100.;   INIMIX=   1;  MIXPRE=   1;  MAXMIX= -45

 Intra band minimization:
   WEIMIN = 0.0000     energy-eigenvalue tresh-hold
   EBREAK =  0.17E-08  absolut break condition
   DEPER  =   0.30     relativ break condition  

   TIME   =   0.40     timestep for ELM

  volume/ion in A,a.u.               =      11.79        79.54
  Fermi-wavevector in a.u.,A,eV,Ry     =   1.733725  3.276266 40.896439  3.005803
  Thomas-Fermi vector in A             =   2.807657
 
 Write flags
   LWAVE        =      F    write WAVECAR
   LDOWNSAMPLE  =      F    k-point downsampling of WAVECAR
   LCHARG       =      T    write CHGCAR
   LVTOT        =      F    write LOCPOT, total local potential
   LVHAR        =      F    write LOCPOT, Hartree potential only
   LELF         =      F    write electronic localiz. function (ELF)
   LORBIT       =     10    0 simple, 1 ext, 2 COOP (PROOUT), +10 PAW based schemes


 Dipole corrections
   LMONO  =      F    monopole corrections only (constant potential shift)
   LDIPOL =      F    correct potential (dipole corrections)
   IDIPOL =      0    1-x, 2-y, 3-z, 4-all directions 
   EPSILON=  1.0000000 bulk dielectric constant

 Exchange correlation treatment:
   GGA     =    --    GGA type
   LEXCH   =     8    internal setting for exchange type
   VOSKOWN=      0    Vosko Wilk Nusair interpolation
   LHFCALC =     F    Hartree Fock is set to
   LHFONE  =     F    Hartree Fock one center treatment
   AEXX    =    0.0000 exact exchange contribution

 Linear response parameters
   LEPSILON=     F    determine dielectric tensor
   LRPA    =     F    only Hartree local field effects (RPA)
   LNABLA  =     F    use nabla operator in PAW spheres
   LVEL    =     F    velocity operator in full k-point grid
   LINTERFAST=   F  fast interpolation
   KINTER  =     0    interpolate to denser k-point grid
   CSHIFT  =0.1000    complex shift for real part using Kramers Kronig
   OMEGAMAX=  -1.0    maximum frequency
   DEG_THRESHOLD= 0.2000000E-02 threshold for treating states as degnerate
   RTIME   =   -0.100 relaxation time in fs
  (WPLASMAI=    0.000 imaginary part of plasma frequency in eV, 0.658/RTIME)
   DFIELD  = 0.0000000 0.0000000 0.0000000 field for delta impulse in time
 
 Orbital magnetization related:
   ORBITALMAG=     F  switch on orbital magnetization
   LCHIMAG   =     F  perturbation theory with respect to B field
   DQ        =  0.001000  dq finite difference perturbation B field
   LLRAUG    =     F  two centre corrections for induced B field



--------------------------------------------------------------------------------------------------------


 Static calculation
 charge density and potential will be updated during run
 spin polarized calculation
 Variant of blocked Davidson
 Davidson routine will perform the subspace rotation
 perform sub-space diagonalisation
    after iterative eigenvector-optimisation
 modified Broyden-mixing scheme, WC =      100.0
 initial mixing is a Kerker type mixing with AMIX =  0.1800 and BMIX =      0.0025
 Hartree-type preconditioning will be used
 using additional bands           36
 real space projection scheme for non local part
 use partial core corrections
 calculate Harris-corrections to forces 
   (improved forces if not selfconsistent)
 use gradient corrections 
 use of overlap-Matrix (Vanderbilt PP)
 Methfessel and Paxton  Order N= 1 SIGMA  =   0.10


--------------------------------------------------------------------------------------------------------


  energy-cutoff  :      500.00
  volume of cell :      188.60
      direct lattice vectors                 reciprocal lattice vectors
     5.735036817  0.000000000  0.000000000     0.174366797  0.000000000  0.000000000
     0.000000000  5.735036817  0.000000000     0.000000000  0.174366797  0.000000000
     0.000000000  0.000000000  5.734020248     0.000000000  0.000000000  0.174397710

  length of vectors
     5.735036817  5.735036817  5.734020248     0.174366797  0.174366797  0.174397710


 
 k-points in units of 2pi/SCALE and weight: Ni7CoMn5CrSn2                           
   0.00000000  0.00000000  0.00000000       0.000
   0.06672436  0.00000000  0.00000000       0.001
   0.13344872  0.00000000  0.00000000       0.001
   0.20017308  0.00000000  0.00000000       0.001
   0.26689744  0.00000000  0.00000000       0.001
   0.33362180  0.00000000  0.00000000       0.001
   0.40034617  0.00000000  0.00000000       0.001
   0.46707053  0.00000000  0.00000000       0.001
   0.06672436  0.06672436  0.00000000       0.001
   0.13344872  0.06672436  0.00000000       0.002
   0.20017308  0.06672436  0.00000000       0.002
   0.26689744  0.06672436  0.00000000       0.002
   0.33362180  0.06672436  0.00000000       0.002
   0.40034617  0.06672436  0.00000000       0.002
   0.46707053  0.06672436  0.00000000       0.002
   0.13344872  0.13344872  0.00000000       0.001
   0.20017308  0.13344872  0.00000000       0.002
   0.26689744  0.13344872  0.00000000       0.002
   0.33362180  0.13344872  0.00000000       0.002
   0.40034617  0.13344872  0.00000000       0.002
   0.46707053  0.13344872  0.00000000       0.002
   0.20017308  0.20017308  0.00000000       0.001
   0.26689744  0.20017308  0.00000000       0.002
   0.33362180  0.20017308  0.00000000       0.002
   0.40034617  0.20017308  0.00000000       0.002
   0.46707053  0.20017308  0.00000000       0.002
   0.26689744  0.26689744  0.00000000       0.001
   0.33362180  0.26689744  0.00000000       0.002
   0.40034617  0.26689744  0.00000000       0.002
   0.46707053  0.26689744  0.00000000       0.002
   0.33362180  0.33362180  0.00000000       0.001
   0.40034617  0.33362180  0.00000000       0.002
   0.46707053  0.33362180  0.00000000       0.002
   0.40034617  0.40034617  0.00000000       0.001
   0.46707053  0.40034617  0.00000000       0.002
   0.46707053  0.46707053  0.00000000       0.001
   0.00000000  0.00000000  0.06673619       0.001
   0.06672436  0.00000000  0.06673619       0.002
   0.13344872  0.00000000  0.06673619       0.002
   0.20017308  0.00000000  0.06673619       0.002
   0.26689744  0.00000000  0.06673619       0.002
   0.33362180  0.00000000  0.06673619       0.002
   0.40034617  0.00000000  0.06673619       0.002
   0.46707053  0.00000000  0.06673619       0.002
   0.06672436  0.06672436  0.06673619       0.002
   0.13344872  0.06672436  0.06673619       0.005
   0.20017308  0.06672436  0.06673619       0.005
   0.26689744  0.06672436  0.06673619       0.005
   0.33362180  0.06672436  0.06673619       0.005
   0.40034617  0.06672436  0.06673619       0.005
   0.46707053  0.06672436  0.06673619       0.005
   0.13344872  0.13344872  0.06673619       0.002
   0.20017308  0.13344872  0.06673619       0.005
   0.26689744  0.13344872  0.06673619       0.005
   0.33362180  0.13344872  0.06673619       0.005
   0.40034617  0.13344872  0.06673619       0.005
   0.46707053  0.13344872  0.06673619       0.005
   0.20017308  0.20017308  0.06673619       0.002
   0.26689744  0.20017308  0.06673619       0.005
   0.33362180  0.20017308  0.06673619       0.005
   0.40034617  0.20017308  0.06673619       0.005
   0.46707053  0.20017308  0.06673619       0.005
   0.26689744  0.26689744  0.06673619       0.002
   0.33362180  0.26689744  0.06673619       0.005
   0.40034617  0.26689744  0.06673619       0.005
   0.46707053  0.26689744  0.06673619       0.005
   0.33362180  0.33362180  0.06673619       0.002
   0.40034617  0.33362180  0.06673619       0.005
   0.46707053  0.33362180  0.06673619       0.005
   0.40034617  0.40034617  0.06673619       0.002
   0.46707053  0.40034617  0.06673619       0.005
   0.46707053  0.46707053  0.06673619       0.002
   0.00000000  0.00000000  0.13347238       0.001
   0.06672436  0.00000000  0.13347238       0.002
   0.13344872  0.00000000  0.13347238       0.002
   0.20017308  0.00000000  0.13347238       0.002
   0.26689744  0.00000000  0.13347238       0.002
   0.33362180  0.00000000  0.13347238       0.002
   0.40034617  0.00000000  0.13347238       0.002
   0.46707053  0.00000000  0.13347238       0.002
   0.06672436  0.06672436  0.13347238       0.002
   0.13344872  0.06672436  0.13347238       0.005
   0.20017308  0.06672436  0.13347238       0.005
   0.26689744  0.06672436  0.13347238       0.005
   0.33362180  0.06672436  0.13347238       0.005
   0.40034617  0.06672436  0.13347238       0.005
   0.46707053  0.06672436  0.13347238       0.005
   0.13344872  0.13344872  0.13347238       0.002
   0.20017308  0.13344872  0.13347238       0.005
   0.26689744  0.13344872  0.13347238       0.005
   0.33362180  0.13344872  0.13347238       0.005
   0.40034617  0.13344872  0.13347238       0.005
   0.46707053  0.13344872  0.13347238       0.005
   0.20017308  0.20017308  0.13347238       0.002
   0.26689744  0.20017308  0.13347238       0.005
   0.33362180  0.20017308  0.13347238       0.005
   0.40034617  0.20017308  0.13347238       0.005
   0.46707053  0.20017308  0.13347238       0.005
   0.26689744  0.26689744  0.13347238       0.002
   0.33362180  0.26689744  0.13347238       0.005
   0.40034617  0.26689744  0.13347238       0.005
   0.46707053  0.26689744  0.13347238       0.005
   0.33362180  0.33362180  0.13347238       0.002
   0.40034617  0.33362180  0.13347238       0.005
   0.46707053  0.33362180  0.13347238       0.005
   0.40034617  0.40034617  0.13347238       0.002
   0.46707053  0.40034617  0.13347238       0.005
   0.46707053  0.46707053  0.13347238       0.002
   0.00000000  0.00000000  0.20020857       0.001
   0.06672436  0.00000000  0.20020857       0.002
   0.13344872  0.00000000  0.20020857       0.002
   0.20017308  0.00000000  0.20020857       0.002
   0.26689744  0.00000000  0.20020857       0.002
   0.33362180  0.00000000  0.20020857       0.002
   0.40034617  0.00000000  0.20020857       0.002
   0.46707053  0.00000000  0.20020857       0.002
   0.06672436  0.06672436  0.20020857       0.002
   0.13344872  0.06672436  0.20020857       0.005
   0.20017308  0.06672436  0.20020857       0.005
   0.26689744  0.06672436  0.20020857       0.005
   0.33362180  0.06672436  0.20020857       0.005
   0.40034617  0.06672436  0.20020857       0.005
   0.46707053  0.06672436  0.20020857       0.005
   0.13344872  0.13344872  0.20020857       0.002
   0.20017308  0.13344872  0.20020857       0.005
   0.26689744  0.13344872  0.20020857       0.005
   0.33362180  0.13344872  0.20020857       0.005
   0.40034617  0.13344872  0.20020857       0.005
   0.46707053  0.13344872  0.20020857       0.005
   0.20017308  0.20017308  0.20020857       0.002
   0.26689744  0.20017308  0.20020857       0.005
   0.33362180  0.20017308  0.20020857       0.005
   0.40034617  0.20017308  0.20020857       0.005
   0.46707053  0.20017308  0.20020857       0.005
   0.26689744  0.26689744  0.20020857       0.002
   0.33362180  0.26689744  0.20020857       0.005
   0.40034617  0.26689744  0.20020857       0.005
   0.46707053  0.26689744  0.20020857       0.005
   0.33362180  0.33362180  0.20020857       0.002
   0.40034617  0.33362180  0.20020857       0.005
   0.46707053  0.33362180  0.20020857       0.005
   0.40034617  0.40034617  0.20020857       0.002
   0.46707053  0.40034617  0.20020857       0.005
   0.46707053  0.46707053  0.20020857       0.002
   0.00000000  0.00000000  0.26694476       0.001
   0.06672436  0.00000000  0.26694476       0.002
   0.13344872  0.00000000  0.26694476       0.002
   0.20017308  0.00000000  0.26694476       0.002
   0.26689744  0.00000000  0.26694476       0.002
   0.33362180  0.00000000  0.26694476       0.002
   0.40034617  0.00000000  0.26694476       0.002
   0.46707053  0.00000000  0.26694476       0.002
   0.06672436  0.06672436  0.26694476       0.002
   0.13344872  0.06672436  0.26694476       0.005
   0.20017308  0.06672436  0.26694476       0.005
   0.26689744  0.06672436  0.26694476       0.005
   0.33362180  0.06672436  0.26694476       0.005
   0.40034617  0.06672436  0.26694476       0.005
   0.46707053  0.06672436  0.26694476       0.005
   0.13344872  0.13344872  0.26694476       0.002
   0.20017308  0.13344872  0.26694476       0.005
   0.26689744  0.13344872  0.26694476       0.005
   0.33362180  0.13344872  0.26694476       0.005
   0.40034617  0.13344872  0.26694476       0.005
   0.46707053  0.13344872  0.26694476       0.005
   0.20017308  0.20017308  0.26694476       0.002
   0.26689744  0.20017308  0.26694476       0.005
   0.33362180  0.20017308  0.26694476       0.005
   0.40034617  0.20017308  0.26694476       0.005
   0.46707053  0.20017308  0.26694476       0.005
   0.26689744  0.26689744  0.26694476       0.002
   0.33362180  0.26689744  0.26694476       0.005
   0.40034617  0.26689744  0.26694476       0.005
   0.46707053  0.26689744  0.26694476       0.005
   0.33362180  0.33362180  0.26694476       0.002
   0.40034617  0.33362180  0.26694476       0.005
   0.46707053  0.33362180  0.26694476       0.005
   0.40034617  0.40034617  0.26694476       0.002
   0.46707053  0.40034617  0.26694476       0.005
   0.46707053  0.46707053  0.26694476       0.002
   0.00000000  0.00000000  0.33368095       0.001
   0.06672436  0.00000000  0.33368095       0.002
   0.13344872  0.00000000  0.33368095       0.002
   0.20017308  0.00000000  0.33368095       0.002
   0.26689744  0.00000000  0.33368095       0.002
   0.33362180  0.00000000  0.33368095       0.002
   0.40034617  0.00000000  0.33368095       0.002
   0.46707053  0.00000000  0.33368095       0.002
   0.06672436  0.06672436  0.33368095       0.002
   0.13344872  0.06672436  0.33368095       0.005
   0.20017308  0.06672436  0.33368095       0.005
   0.26689744  0.06672436  0.33368095       0.005
   0.33362180  0.06672436  0.33368095       0.005
   0.40034617  0.06672436  0.33368095       0.005
   0.46707053  0.06672436  0.33368095       0.005
   0.13344872  0.13344872  0.33368095       0.002
   0.20017308  0.13344872  0.33368095       0.005
   0.26689744  0.13344872  0.33368095       0.005
   0.33362180  0.13344872  0.33368095       0.005
   0.40034617  0.13344872  0.33368095       0.005
   0.46707053  0.13344872  0.33368095       0.005
   0.20017308  0.20017308  0.33368095       0.002
   0.26689744  0.20017308  0.33368095       0.005
   0.33362180  0.20017308  0.33368095       0.005
   0.40034617  0.20017308  0.33368095       0.005
   0.46707053  0.20017308  0.33368095       0.005
   0.26689744  0.26689744  0.33368095       0.002
   0.33362180  0.26689744  0.33368095       0.005
   0.40034617  0.26689744  0.33368095       0.005
   0.46707053  0.26689744  0.33368095       0.005
   0.33362180  0.33362180  0.33368095       0.002
   0.40034617  0.33362180  0.33368095       0.005
   0.46707053  0.33362180  0.33368095       0.005
   0.40034617  0.40034617  0.33368095       0.002
   0.46707053  0.40034617  0.33368095       0.005
   0.46707053  0.46707053  0.33368095       0.002
   0.00000000  0.00000000  0.40041714       0.001
   0.06672436  0.00000000  0.40041714       0.002
   0.13344872  0.00000000  0.40041714       0.002
   0.20017308  0.00000000  0.40041714       0.002
   0.26689744  0.00000000  0.40041714       0.002
   0.33362180  0.00000000  0.40041714       0.002
   0.40034617  0.00000000  0.40041714       0.002
   0.46707053  0.00000000  0.40041714       0.002
   0.06672436  0.06672436  0.40041714       0.002
   0.13344872  0.06672436  0.40041714       0.005
   0.20017308  0.06672436  0.40041714       0.005
   0.26689744  0.06672436  0.40041714       0.005
   0.33362180  0.06672436  0.40041714       0.005
   0.40034617  0.06672436  0.40041714       0.005
   0.46707053  0.06672436  0.40041714       0.005
   0.13344872  0.13344872  0.40041714       0.002
   0.20017308  0.13344872  0.40041714       0.005
   0.26689744  0.13344872  0.40041714       0.005
   0.33362180  0.13344872  0.40041714       0.005
   0.40034617  0.13344872  0.40041714       0.005
   0.46707053  0.13344872  0.40041714       0.005
   0.20017308  0.20017308  0.40041714       0.002
   0.26689744  0.20017308  0.40041714       0.005
   0.33362180  0.20017308  0.40041714       0.005
   0.40034617  0.20017308  0.40041714       0.005
   0.46707053  0.20017308  0.40041714       0.005
   0.26689744  0.26689744  0.40041714       0.002
   0.33362180  0.26689744  0.40041714       0.005
   0.40034617  0.26689744  0.40041714       0.005
   0.46707053  0.26689744  0.40041714       0.005
   0.33362180  0.33362180  0.40041714       0.002
   0.40034617  0.33362180  0.40041714       0.005
   0.46707053  0.33362180  0.40041714       0.005
   0.40034617  0.40034617  0.40041714       0.002
   0.46707053  0.40034617  0.40041714       0.005
   0.46707053  0.46707053  0.40041714       0.002
   0.00000000  0.00000000  0.46715333       0.001
   0.06672436  0.00000000  0.46715333       0.002
   0.13344872  0.00000000  0.46715333       0.002
   0.20017308  0.00000000  0.46715333       0.002
   0.26689744  0.00000000  0.46715333       0.002
   0.33362180  0.00000000  0.46715333       0.002
   0.40034617  0.00000000  0.46715333       0.002
   0.46707053  0.00000000  0.46715333       0.002
   0.06672436  0.06672436  0.46715333       0.002
   0.13344872  0.06672436  0.46715333       0.005
   0.20017308  0.06672436  0.46715333       0.005
   0.26689744  0.06672436  0.46715333       0.005
   0.33362180  0.06672436  0.46715333       0.005
   0.40034617  0.06672436  0.46715333       0.005
   0.46707053  0.06672436  0.46715333       0.005
   0.13344872  0.13344872  0.46715333       0.002
   0.20017308  0.13344872  0.46715333       0.005
   0.26689744  0.13344872  0.46715333       0.005
   0.33362180  0.13344872  0.46715333       0.005
   0.40034617  0.13344872  0.46715333       0.005
   0.46707053  0.13344872  0.46715333       0.005
   0.20017308  0.20017308  0.46715333       0.002
   0.26689744  0.20017308  0.46715333       0.005
   0.33362180  0.20017308  0.46715333       0.005
   0.40034617  0.20017308  0.46715333       0.005
   0.46707053  0.20017308  0.46715333       0.005
   0.26689744  0.26689744  0.46715333       0.002
   0.33362180  0.26689744  0.46715333       0.005
   0.40034617  0.26689744  0.46715333       0.005
   0.46707053  0.26689744  0.46715333       0.005
   0.33362180  0.33362180  0.46715333       0.002
   0.40034617  0.33362180  0.46715333       0.005
   0.46707053  0.33362180  0.46715333       0.005
   0.40034617  0.40034617  0.46715333       0.002
   0.46707053  0.40034617  0.46715333       0.005
   0.46707053  0.46707053  0.46715333       0.002
 
 k-points in reciprocal lattice and weights: Ni7CoMn5CrSn2                           
   0.00000000  0.00000000  0.00000000       0.000
   0.06666667  0.00000000  0.00000000       0.001
   0.13333333  0.00000000  0.00000000       0.001
   0.20000000  0.00000000  0.00000000       0.001
   0.26666667  0.00000000  0.00000000       0.001
   0.33333333  0.00000000  0.00000000       0.001
   0.40000000  0.00000000  0.00000000       0.001
   0.46666667  0.00000000  0.00000000       0.001
   0.06666667  0.06666667  0.00000000       0.001
   0.13333333  0.06666667  0.00000000       0.002
   0.20000000  0.06666667  0.00000000       0.002
   0.26666667  0.06666667  0.00000000       0.002
   0.33333333  0.06666667  0.00000000       0.002
   0.40000000  0.06666667  0.00000000       0.002
   0.46666667  0.06666667  0.00000000       0.002
   0.13333333  0.13333333  0.00000000       0.001
   0.20000000  0.13333333  0.00000000       0.002
   0.26666667  0.13333333  0.00000000       0.002
   0.33333333  0.13333333  0.00000000       0.002
   0.40000000  0.13333333  0.00000000       0.002
   0.46666667  0.13333333  0.00000000       0.002
   0.20000000  0.20000000  0.00000000       0.001
   0.26666667  0.20000000  0.00000000       0.002
   0.33333333  0.20000000  0.00000000       0.002
   0.40000000  0.20000000  0.00000000       0.002
   0.46666667  0.20000000  0.00000000       0.002
   0.26666667  0.26666667  0.00000000       0.001
   0.33333333  0.26666667  0.00000000       0.002
   0.40000000  0.26666667  0.00000000       0.002
   0.46666667  0.26666667  0.00000000       0.002
   0.33333333  0.33333333  0.00000000       0.001
   0.40000000  0.33333333  0.00000000       0.002
   0.46666667  0.33333333  0.00000000       0.002
   0.40000000  0.40000000  0.00000000       0.001
   0.46666667  0.40000000  0.00000000       0.002
   0.46666667  0.46666667  0.00000000       0.001
   0.00000000  0.00000000  0.06666667       0.001
   0.06666667  0.00000000  0.06666667       0.002
   0.13333333  0.00000000  0.06666667       0.002
   0.20000000  0.00000000  0.06666667       0.002
   0.26666667  0.00000000  0.06666667       0.002
   0.33333333  0.00000000  0.06666667       0.002
   0.40000000  0.00000000  0.06666667       0.002
   0.46666667  0.00000000  0.06666667       0.002
   0.06666667  0.06666667  0.06666667       0.002
   0.13333333  0.06666667  0.06666667       0.005
   0.20000000  0.06666667  0.06666667       0.005
   0.26666667  0.06666667  0.06666667       0.005
   0.33333333  0.06666667  0.06666667       0.005
   0.40000000  0.06666667  0.06666667       0.005
   0.46666667  0.06666667  0.06666667       0.005
   0.13333333  0.13333333  0.06666667       0.002
   0.20000000  0.13333333  0.06666667       0.005
   0.26666667  0.13333333  0.06666667       0.005
   0.33333333  0.13333333  0.06666667       0.005
   0.40000000  0.13333333  0.06666667       0.005
   0.46666667  0.13333333  0.06666667       0.005
   0.20000000  0.20000000  0.06666667       0.002
   0.26666667  0.20000000  0.06666667       0.005
   0.33333333  0.20000000  0.06666667       0.005
   0.40000000  0.20000000  0.06666667       0.005
   0.46666667  0.20000000  0.06666667       0.005
   0.26666667  0.26666667  0.06666667       0.002
   0.33333333  0.26666667  0.06666667       0.005
   0.40000000  0.26666667  0.06666667       0.005
   0.46666667  0.26666667  0.06666667       0.005
   0.33333333  0.33333333  0.06666667       0.002
   0.40000000  0.33333333  0.06666667       0.005
   0.46666667  0.33333333  0.06666667       0.005
   0.40000000  0.40000000  0.06666667       0.002
   0.46666667  0.40000000  0.06666667       0.005
   0.46666667  0.46666667  0.06666667       0.002
   0.00000000  0.00000000  0.13333333       0.001
   0.06666667  0.00000000  0.13333333       0.002
   0.13333333  0.00000000  0.13333333       0.002
   0.20000000  0.00000000  0.13333333       0.002
   0.26666667  0.00000000  0.13333333       0.002
   0.33333333  0.00000000  0.13333333       0.002
   0.40000000  0.00000000  0.13333333       0.002
   0.46666667  0.00000000  0.13333333       0.002
   0.06666667  0.06666667  0.13333333       0.002
   0.13333333  0.06666667  0.13333333       0.005
   0.20000000  0.06666667  0.13333333       0.005
   0.26666667  0.06666667  0.13333333       0.005
   0.33333333  0.06666667  0.13333333       0.005
   0.40000000  0.06666667  0.13333333       0.005
   0.46666667  0.06666667  0.13333333       0.005
   0.13333333  0.13333333  0.13333333       0.002
   0.20000000  0.13333333  0.13333333       0.005
   0.26666667  0.13333333  0.13333333       0.005
   0.33333333  0.13333333  0.13333333       0.005
   0.40000000  0.13333333  0.13333333       0.005
   0.46666667  0.13333333  0.13333333       0.005
   0.20000000  0.20000000  0.13333333       0.002
   0.26666667  0.20000000  0.13333333       0.005
[...]
    138      14.9914      0.00000
    139      15.2501      0.00000
    140      15.2501      0.00000
    141      15.2515      0.00000
    142      15.2844      0.00000
    143      15.2855      0.00000
    144      15.2855      0.00000
    145      18.2106      0.00000
    146      18.2943      0.00000
    147      18.2943      0.00000
    148      18.2944      0.00000


--------------------------------------------------------------------------------------------------------


 soft charge-density along one line, spin component           1
         0         1         2         3         4         5         6         7         8         9
 total charge-density along one line
 
 soft charge-density along one line, spin component           2
         0         1         2         3         4         5         6         7         8         9
 total charge-density along one line
 
 pseudopotential strength for first ion, spin component:           1
-44.834  -0.000  -0.000   7.536   0.000   0.000   0.000   0.000
 -0.000 -44.834  -0.000   0.000   7.536   0.000   0.016   0.000
 -0.000  -0.000 -44.834   0.000   0.000   7.536   0.000   0.016
  7.536   0.000   0.000   5.658   0.000   0.000  -0.000  -0.000
  0.000   7.536   0.000   0.000   5.658   0.000  -0.007  -0.000
  0.000   0.000   7.536   0.000   0.000   5.658  -0.000  -0.007
  0.000   0.016   0.000  -0.000  -0.007  -0.000  -1.971  -0.000
  0.000   0.000   0.016  -0.000  -0.000  -0.007  -0.000  -1.971
 -0.000  -0.000  -0.000   0.000  -0.000   0.000   0.000   0.000
  0.016   0.000   0.000  -0.007  -0.000  -0.000  -0.000  -0.000
  0.000  -0.000  -0.000  -0.000   0.000   0.000   0.000   0.000
  0.000   0.016   0.000  -0.000  -0.007  -0.000  -2.487  -0.000
  0.000   0.000   0.016  -0.000  -0.000  -0.007  -0.000  -2.488
 -0.000  -0.000  -0.000   0.000  -0.000   0.000   0.000   0.000
  0.016   0.000   0.000  -0.007  -0.000  -0.000  -0.000  -0.000
  0.000  -0.000  -0.000  -0.000   0.000   0.000   0.000   0.000
 -0.000  -0.000  -0.000  -0.000  -0.000  -0.000   0.000   0.000
 -0.000  -0.000  -0.000  -0.000  -0.000  -0.000   0.000   0.000
 pseudopotential strength for first ion, spin component:           2
-43.263  -0.000  -0.000   6.873   0.000   0.000  -0.000   0.000
 -0.000 -43.263  -0.000   0.000   6.873   0.000  -0.008  -0.000
 -0.000  -0.000 -43.263   0.000   0.000   6.873  -0.000  -0.008
  6.873   0.000   0.000   5.842   0.000   0.000   0.000  -0.000
  0.000   6.873   0.000   0.000   5.842   0.000   0.005   0.000
  0.000   0.000   6.873   0.000   0.000   5.842   0.000   0.005
 -0.000  -0.008  -0.000   0.000   0.005   0.000  -0.750  -0.000
  0.000  -0.000  -0.008  -0.000   0.000   0.005  -0.000  -0.750
  0.000   0.000   0.000  -0.000  -0.000  -0.000   0.000   0.000
 -0.008  -0.000   0.000   0.005   0.000  -0.000  -0.000   0.000
 -0.000  -0.000   0.000   0.000   0.000  -0.000   0.000   0.000
 -0.000  -0.008  -0.000   0.000   0.005   0.000  -1.286  -0.000
  0.000  -0.000  -0.008  -0.000   0.000   0.005  -0.000  -1.286
  0.000   0.000   0.000  -0.000  -0.000  -0.000   0.000   0.000
 -0.008  -0.000   0.000   0.005   0.000  -0.000  -0.000   0.000
 -0.000  -0.000   0.000   0.000   0.000  -0.000   0.000   0.000
  0.000  -0.000   0.000   0.000  -0.000   0.000   0.000   0.000
  0.000  -0.000   0.000   0.000  -0.000   0.000   0.000   0.000
 total augmentation occupancy for first ion, spin component:           1
  1.993  -0.000   0.000  -0.021   0.000   0.000   0.000  -0.000   0.000  -0.001   0.000   0.000  -0.000  -0.000   0.001  -0.000
 -0.000   1.993  -0.000   0.000  -0.021   0.000  -0.001  -0.000   0.000   0.000  -0.000   0.001   0.000   0.000   0.000  -0.000
  0.000  -0.000   1.993   0.000   0.000  -0.021   0.000  -0.001   0.000   0.000  -0.000   0.000   0.001  -0.000  -0.000   0.000
 -0.021   0.000   0.000   0.182   0.000   0.000   0.000   0.000   0.000  -0.047   0.000   0.000   0.000   0.000   0.012  -0.000
  0.000  -0.021   0.000   0.000   0.182   0.000  -0.047  -0.000   0.000   0.000   0.000   0.012  -0.000  -0.000   0.000  -0.000
  0.000   0.000  -0.021   0.000   0.000   0.182   0.000  -0.047   0.000   0.000   0.000  -0.000   0.012   0.000   0.000   0.000
  0.000  -0.001  -0.000  -0.000  -0.047   0.000   2.085   0.000   0.000  -0.000  -0.000  -1.180   0.000   0.000   0.000   0.000
 -0.000   0.000  -0.001   0.000   0.000  -0.047  -0.000   2.085  -0.000  -0.000  -0.000  -0.000  -1.180   0.000   0.000   0.000
  0.000   0.000   0.000   0.000   0.000   0.000  -0.000  -0.000   2.275   0.000   0.000  -0.000  -0.000  -1.359   0.000  -0.000
 -0.001   0.000   0.000  -0.047   0.000   0.000   0.000  -0.000  -0.000   2.085  -0.000   0.000   0.000   0.000  -1.180  -0.000
 -0.000  -0.000  -0.000  -0.000   0.000   0.000   0.000  -0.000   0.000   0.000   2.276  -0.000   0.000   0.000   0.000  -1.360
  0.000   0.001   0.000   0.000   0.012   0.000  -1.180  -0.000   0.000   0.000  -0.000   1.705  -0.000  -0.000   0.000   0.000
 -0.000   0.000   0.001   0.000  -0.000   0.012   0.000  -1.180   0.000   0.000   0.000  -0.000   1.705  -0.000  -0.000   0.000
 -0.000  -0.000  -0.000   0.000   0.000  -0.000  -0.000   0.000  -1.359   0.000   0.000  -0.000   0.000   1.675   0.000   0.000
  0.001   0.000  -0.000   0.012  -0.000  -0.000  -0.000   0.000   0.000  -1.180   0.000  -0.000   0.000   0.000   1.705   0.000
 -0.000  -0.000   0.000   0.000  -0.000  -0.000  -0.000   0.000  -0.000  -0.000  -1.360  -0.000   0.000   0.000   0.000   1.676
  0.000  -0.000  -0.000   0.000   0.000  -0.000   0.000   0.000  -0.000   0.000   0.000  -0.000  -0.000   0.000  -0.000   0.000
  0.000   0.000  -0.000   0.000   0.000  -0.000  -0.000  -0.000  -0.000   0.000  -0.000   0.000   0.000   0.000   0.000   0.000
 total augmentation occupancy for first ion, spin component:           2
 -0.002  -0.000   0.000  -0.006   0.000   0.000   0.000   0.000   0.000  -0.009   0.000   0.000  -0.000   0.000   0.009  -0.000
 -0.000  -0.002  -0.000   0.000  -0.006   0.000  -0.009  -0.000   0.000  -0.000   0.000   0.009   0.000   0.000  -0.000   0.000
  0.000  -0.000  -0.002   0.000   0.000  -0.006   0.000  -0.009   0.000   0.000  -0.000   0.000   0.009  -0.000  -0.000   0.000
 -0.006   0.000   0.000  -0.007   0.000   0.000  -0.000  -0.000   0.000   0.060   0.000   0.000   0.000   0.000  -0.015  -0.000
  0.000  -0.006   0.000  -0.000  -0.007   0.000   0.060  -0.000   0.000   0.000   0.000  -0.015   0.000  -0.000   0.000   0.000
  0.000   0.000  -0.006   0.000  -0.000  -0.007   0.000   0.060   0.000   0.000   0.000   0.000  -0.015  -0.000  -0.000   0.000
  0.000  -0.009  -0.000   0.000   0.060   0.000   1.158   0.000   0.000  -0.000   0.000  -0.339   0.000   0.000   0.000  -0.000
  0.000   0.000  -0.009   0.000   0.000   0.060   0.000   1.159  -0.000  -0.000   0.000   0.000  -0.339  -0.000  -0.000   0.000
  0.000   0.000  -0.000  -0.000  -0.000   0.000   0.000   0.000   1.710  -0.000   0.000  -0.000   0.000  -0.520  -0.000   0.000
 -0.009   0.000   0.000   0.060   0.000  -0.000   0.000  -0.000  -0.000   1.159   0.000  -0.000  -0.000  -0.000  -0.339   0.000
 -0.000   0.000  -0.000  -0.000   0.000  -0.000  -0.000   0.000  -0.000  -0.000   1.711  -0.000   0.000  -0.000   0.000  -0.521
  0.000   0.009  -0.000   0.000  -0.015   0.000  -0.339   0.000  -0.000  -0.000  -0.000  -0.129   0.000  -0.000   0.000  -0.000
 -0.000   0.000   0.009   0.000  -0.000  -0.015  -0.000  -0.339  -0.000   0.000   0.000   0.000  -0.128   0.000  -0.000  -0.000
 -0.000  -0.000  -0.000   0.000   0.000  -0.000   0.000   0.000  -0.520  -0.000  -0.000   0.000  -0.000  -0.090   0.000   0.000
  0.009   0.000  -0.000  -0.015   0.000   0.000   0.000   0.000  -0.000  -0.339  -0.000   0.000  -0.000   0.000  -0.128   0.000
 -0.000   0.000  -0.000   0.000  -0.000   0.000  -0.000  -0.000  -0.000   0.000  -0.521   0.000   0.000   0.000  -0.000  -0.089
  0.000  -0.000   0.000   0.000  -0.000   0.000  -0.000  -0.000  -0.000   0.000  -0.000   0.000   0.000   0.000   0.000   0.000
  0.000   0.000   0.000   0.000  -0.000   0.000   0.000   0.000  -0.000  -0.000   0.000   0.000   0.000   0.000   0.000  -0.000


------------------------ aborting loop because EDIFF is reached ----------------------------------------





 total charge

# of ion       s       p       d       tot
------------------------------------------
    1        0.332   6.340   6.201  12.873
    2        0.332   6.340   6.201  12.873
    3        0.332   6.340   6.201  12.873
    4        0.332   6.340   6.201  12.873
    5        0.369   6.353   6.050  12.773
    6        0.369   6.353   6.050  12.773
    7        0.369   6.353   6.050  12.773
    8        0.369   6.353   6.050  12.773
    9        0.427   6.468   7.381  14.275
   10        0.427   6.468   7.381  14.275
   11        0.427   6.468   7.381  14.275
   12        0.427   6.468   7.381  14.275
   13        0.866   0.928  10.041  11.835
   14        0.866   0.928  10.041  11.835
   15        0.866   0.928  10.041  11.835
   16        0.866   0.928  10.041  11.835
--------------------------------------------------
tot          7.974  80.358 118.693 207.025



 magnetization (x)

# of ion       s       p       d       tot
------------------------------------------
    1       -0.000  -0.015   1.855   1.839
    2       -0.000  -0.015   1.855   1.839
    3       -0.000  -0.015   1.855   1.839
    4       -0.000  -0.015   1.855   1.839
    5        0.001  -0.019   2.615   2.597
    6        0.001  -0.019   2.615   2.597
    7        0.001  -0.019   2.615   2.597
    8        0.001  -0.019   2.615   2.597
    9       -0.017  -0.042   1.174   1.116
   10       -0.017  -0.042   1.174   1.116
   11       -0.017  -0.042   1.174   1.116
   12       -0.017  -0.042   1.174   1.116
   13       -0.006  -0.076  -0.007  -0.089
   14       -0.006  -0.076  -0.007  -0.089
   15       -0.006  -0.076  -0.007  -0.089
   16       -0.006  -0.076  -0.007  -0.089
--------------------------------------------------
tot         -0.085  -0.610  22.547  21.852
 
    CHARGE:  cpu time    2.8322: real time    2.8407
    FORLOC:  cpu time    0.0040: real time    0.0045
    FORNL :  cpu time   24.0015: real time   24.0611
    STRESS:  cpu time   72.1285: real time   72.3054
    FORCOR:  cpu time    0.0360: real time    0.0365
    FORHAR:  cpu time    0.0040: real time    0.0059
    MIXING:  cpu time    0.0040: real time    0.0017
    OFIELD:  cpu time    0.0000: real time    0.0000

  FORCE on cell =-STRESS in cart. coord.  units (eV):
  Direction    XX          YY          ZZ          XY          YZ          ZX
  --------------------------------------------------------------------------------------
  Alpha Z  1844.57826  1844.57826  1844.57826
  Ewald   -9565.14120 -9565.14120 -9564.85802    -0.00000    -0.00000     0.00000
  Hartree  2936.51562  2936.51562  2936.70121    -0.00000    -0.00000    -0.00000
  E(xc)   -1430.90473 -1430.90473 -1430.90444    -0.00000    -0.00000    -0.00000
  Local    2428.75415  2428.75415  2428.28900    -0.00000     0.00000    -0.00000
  n-local  -327.63514  -327.06520  -327.34906    -0.74811    -1.56056     0.05009
  augment  2208.37679  2208.37679  2208.37374     0.00000     0.00002     0.00002
  Kinetic  1902.68367  1906.73655  1904.71261    -1.43865    -3.21733     0.33784
  Fock        0.00000     0.00000     0.00000     0.00000     0.00000     0.00000
  -------------------------------------------------------------------------------------
  Total      -0.46117    -0.46117    -0.45669     0.00000     0.00000     0.00000
  in kB      -3.91775    -3.91775    -3.87972     0.00000     0.00000     0.00000
  external pressure =       -3.91 kB  Pullay stress =        0.00 kB


 VOLUME and BASIS-vectors are now :
 -----------------------------------------------------------------------------
  energy-cutoff  :      500.00
  volume of cell :      188.60
      direct lattice vectors                 reciprocal lattice vectors
     5.735036817  0.000000000  0.000000000     0.174366797  0.000000000  0.000000000
     0.000000000  5.735036817  0.000000000     0.000000000  0.174366797  0.000000000
     0.000000000  0.000000000  5.734020248     0.000000000  0.000000000  0.174397710

  length of vectors
     5.735036817  5.735036817  5.734020248     0.174366797  0.174366797  0.174397710


 FORCES acting on ions
    electron-ion (+dipol)            ewald-force                    non-local-force                 convergence-correction
 -----------------------------------------------------------------------------------------------
   0.169E-07 0.169E-07 0.682E-10   -.313E-12 -.114E-12 0.000E+00   0.867E-18 0.325E-18 -.867E-18   -.365E-12 -.242E-13 -.627E-13
   0.169E-07 0.169E-07 0.741E-10   -.313E-12 -.853E-13 0.000E+00   -.867E-18 0.125E-17 0.434E-18   0.338E-12 0.249E-13 -.790E-13
   0.169E-07 0.169E-07 0.551E-10   -.313E-12 -.853E-13 0.000E+00   0.173E-17 0.379E-18 0.434E-18   -.430E-12 0.103E-12 0.376E-12
   0.169E-07 0.169E-07 0.726E-10   -.313E-12 -.114E-12 0.000E+00   0.867E-18 -.141E-17 0.000E+00   0.299E-12 0.676E-13 0.481E-12
   -.719E-08 -.719E-08 -.264E-10   0.287E-12 0.116E-12 -.604E-13   -.867E-18 0.607E-17 -.260E-17   0.167E-12 -.707E-14 0.578E-12
   -.719E-08 -.720E-08 -.285E-10   0.287E-12 0.123E-12 -.672E-13   -.217E-17 0.000E+00 -.867E-18   0.171E-12 0.981E-13 0.479E-13
   -.719E-08 -.719E-08 -.269E-10   0.294E-12 0.116E-12 -.672E-13   0.000E+00 0.607E-17 0.347E-17   -.222E-12 -.146E-12 0.645E-13
   -.719E-08 -.718E-08 -.209E-10   0.294E-12 0.123E-12 -.604E-13   0.304E-17 0.000E+00 0.867E-18   -.251E-12 0.121E-12 0.564E-12
   0.404E-07 0.404E-07 0.199E-09   -.171E-12 -.284E-13 0.114E-12   0.000E+00 0.347E-17 -.260E-17   -.391E-12 -.105E-12 0.339E-12
   0.404E-07 0.404E-07 0.229E-09   -.171E-12 -.568E-13 0.114E-12   0.781E-17 0.000E+00 -.434E-17   0.373E-12 -.124E-12 0.347E-12
   0.404E-07 0.404E-07 0.231E-09   -.171E-12 -.284E-13 0.114E-12   0.000E+00 0.347E-17 -.867E-18   0.325E-12 -.641E-13 -.142E-12
   0.404E-07 0.404E-07 0.222E-09   -.171E-12 -.568E-13 0.114E-12   0.867E-18 0.000E+00 -.434E-17   -.472E-12 0.744E-14 -.257E-12
   0.170E-07 0.170E-07 0.522E-10   0.200E-12 -.818E-14 -.625E-13   -.867E-18 -.651E-18 0.434E-18   0.482E-13 0.214E-13 -.160E-12
   0.170E-07 0.170E-07 0.582E-10   0.202E-12 -.821E-14 -.538E-13   0.000E+00 0.152E-17 -.434E-18   -.210E-12 -.112E-12 0.384E-12
   0.170E-07 0.170E-07 0.536E-10   0.196E-12 0.747E-14 -.538E-13   0.152E-17 0.651E-18 0.434E-18   0.262E-13 0.144E-12 0.349E-12
   0.170E-07 0.170E-07 0.669E-10   0.198E-12 0.744E-14 -.576E-13   -.282E-17 0.108E-17 -.434E-18   -.215E-12 0.117E-12 -.188E-12
 -----------------------------------------------------------------------------------------------
   0.269E-06 0.269E-06 0.128E-08   0.241E-13 -.908E-13 -.282E-13   0.911E-17 0.222E-16 -.113E-16   -.810E-12 0.121E-12 0.264E-11
 
 
 POSITION                                       TOTAL-FORCE (eV/Angst)
 -----------------------------------------------------------------------------------
      2.86752      0.00000      2.86701        -0.000000      0.000000      0.000000
      0.00000      2.86752      2.86701        -0.000000      0.000000      0.000000
      2.86752      2.86752      0.00000        -0.000000      0.000000      0.000000
      0.00000      0.00000      0.00000        -0.000000      0.000000     -0.000000
      1.43376      1.43376      4.30052        -0.000000     -0.000000     -0.000000
      1.43376      4.30128      1.43351        -0.000000     -0.000000      0.000000
      4.30128      1.43376      1.43351         0.000000      0.000000      0.000000
      4.30128      4.30128      4.30052         0.000000     -0.000000     -0.000000
      2.86752      0.00000      0.00000        -0.000000     -0.000000      0.000000
      0.00000      2.86752      0.00000        -0.000000     -0.000000     -0.000000
      0.00000      0.00000      2.86701         0.000000      0.000000     -0.000000
      2.86752      2.86752      2.86701         0.000000     -0.000000      0.000000
      1.43376      1.43376      1.43351         0.000000      0.000000      0.000000
      4.30128      1.43376      4.30052        -0.000000      0.000000      0.000000
      1.43376      4.30128      4.30052        -0.000000      0.000000     -0.000000
      4.30128      4.30128      1.43351         0.000000     -0.000000      0.000000
 -----------------------------------------------------------------------------------
    total drift:                                0.000000      0.000000      0.000000


--------------------------------------------------------------------------------------------------------



  FREE ENERGIE OF THE ION-ELECTRON SYSTEM (eV)
  ---------------------------------------------------
  free  energy   TOTEN  =      -108.10065466 eV

  energy  without entropy=     -108.09868840  energy(sigma->0) =     -108.09999924
 


--------------------------------------------------------------------------------------------------------


    POTLOK:  cpu time    0.1000: real time    0.1023


--------------------------------------------------------------------------------------------------------


     LOOP+:  cpu time 2554.0916: real time 2561.2022
    4ORBIT:  cpu time    0.0000: real time    0.0000



 total charge

# of ion       s       p       d       tot
------------------------------------------
    1        0.332   6.340   6.201  12.873
    2        0.332   6.340   6.201  12.873
    3        0.332   6.340   6.201  12.873
    4        0.332   6.340   6.201  12.873
    5        0.369   6.353   6.050  12.773
    6        0.369   6.353   6.050  12.773
    7        0.369   6.353   6.050  12.773
    8        0.369   6.353   6.050  12.773
    9        0.427   6.468   7.381  14.275
   10        0.427   6.468   7.381  14.275
   11        0.427   6.468   7.381  14.275
   12        0.427   6.468   7.381  14.275
   13        0.866   0.928  10.041  11.835
   14        0.866   0.928  10.041  11.835
   15        0.866   0.928  10.041  11.835
   16        0.866   0.928  10.041  11.835
--------------------------------------------------
tot          7.974  80.358 118.693 207.025



 magnetization (x)

# of ion       s       p       d       tot
------------------------------------------
    1       -0.000  -0.015   1.855   1.839
    2       -0.000  -0.015   1.855   1.839
    3       -0.000  -0.015   1.855   1.839
    4       -0.000  -0.015   1.855   1.839
    5        0.001  -0.019   2.615   2.597
    6        0.001  -0.019   2.615   2.597
    7        0.001  -0.019   2.615   2.597
    8        0.001  -0.019   2.615   2.597
    9       -0.017  -0.042   1.174   1.116
   10       -0.017  -0.042   1.174   1.116
   11       -0.017  -0.042   1.174   1.116
   12       -0.017  -0.042   1.174   1.116
   13       -0.006  -0.076  -0.007  -0.089
   14       -0.006  -0.076  -0.007  -0.089
   15       -0.006  -0.076  -0.007  -0.089
   16       -0.006  -0.076  -0.007  -0.089
--------------------------------------------------
tot         -0.085  -0.610  22.547  21.852
 

 total amount of memory used by VASP MPI-rank0   342836. kBytes
=======================================================================

   base      :      30000. kBytes
   nonlr-proj:       3740. kBytes
   fftplans  :       4038. kBytes
   grid      :       3529. kBytes
   one-center:         93. kBytes
   wavefun   :     301436. kBytes
 
  
  
 General timing and accounting informations for this job:
 ========================================================
  
                  Total CPU time used (sec):     2597.410
                            User time (sec):     2585.514
                          System time (sec):       11.897
                         Elapsed time (sec):     2605.133
  
                   Maximum memory used (kb):      427344.
                   Average memory used (kb):          N/A
  
                          Minor page faults:       107853
                          Major page faults:            0
                 Voluntary context switches:         3568
