 vasp.6.1.1 19Jun20 (build Jan 21 2021 08:43:03) complex                        
  
 executed on             LinuxIFC date 2023.04.01  03:51:46
 running on   80 total cores
 distrk:  each k-point on   80 cores,    1 groups
 distr:  one band on NCORE=  10 cores,    8 groups


--------------------------------------------------------------------------------------------------------


 INCAR:
 POTCAR:    PAW_PBE Fe_pv 02Aug2007               
 POTCAR:    PAW_PBE Co_pv 23Apr2009               
 POTCAR:       PAW_PBE Si 05Jan2001               
 POTCAR:    PAW_PBE Fe_pv 02Aug2007               
   VRHFIN =Fe:  3pd7s1                                                                              
   LEXCH  = PE                                                                                      
   EATOM  =  2457.4239 eV,  180.6156 Ry                                                             
                                                                                                    
   TITEL  = PAW_PBE Fe_pv 02Aug2007                                                                 
   LULTRA =        F    use ultrasoft PP ?                                                          
   IUNSCR =        1    unscreen: 0-lin 1-nonlin 2-no                                               
   RPACOR =    1.750    partial core radius                                                         
   POMASS =   55.847; ZVAL   =   14.000    mass and valenz                                          
   RCORE  =    2.200    outmost cutoff radius                                                       
   RWIGS  =    2.200; RWIGS  =    1.164    wigner-seitz radius (au A)                               
   ENMAX  =  293.238; ENMIN  =  219.928 eV                                                          
   ICORE  =        3    local potential                                                             
   LCOR   =        T    correct aug charges                                                         
   LPAW   =        T    paw PP                                                                      
   EAUG   =  578.342                                                                                
   DEXC   =    0.000                                                                                
   RMAX   =    2.249    core radius for proj-oper                                                   
   RAUG   =    1.300    factor for augmentation sphere                                              
   RDEP   =    2.296    radius for radial grids                                                     
   RDEPT  =    1.766    core radius for aug-charge                                                  
                                                                                                    
   Atomic configuration                                                                             
    8 entries                                                                                       
     n  l   j            E        occ.                                                              
     1  0  0.50     -6993.8440   2.0000                                                             
     2  0  0.50      -814.6047   2.0000                                                             
     2  1  1.50      -693.3689   6.0000                                                             
     3  0  0.50       -89.4732   2.0000                                                             
     3  1  1.50       -55.6373   6.0000                                                             
     3  2  2.50        -3.8151   7.0000                                                             
     4  0  0.50        -4.2551   1.0000                                                             
     4  3  2.50        -1.3606   0.0000                                                             
   Description                                                                                      
     l       E           TYP  RCUT    TYP  RCUT                                                     
     1    -55.6372668     23  2.000                                                                 
     1     -5.4423304     23  2.000                                                                 
     2     -3.8151096     23  2.200                                                                 
     2     -5.1756922     23  2.200                                                                 
     0     -4.2550951     23  2.200                                                                 
     0     27.2116520     23  2.200                                                                 
     3     -1.3605826     23  2.200                                                                 
  local pseudopotential read in
  partial core-charges read in
  partial kinetic energy density read in
  atomic valenz-charges read in
  non local Contribution for L=           1  read in
    real space projection operators read in
  non local Contribution for L=           1  read in
    real space projection operators read in
  non local Contribution for L=           2  read in
    real space projection operators read in
  non local Contribution for L=           2  read in
    real space projection operators read in
  non local Contribution for L=           0  read in
    real space projection operators read in
  non local Contribution for L=           0  read in
    real space projection operators read in
    PAW grid and wavefunctions read in
 
   number of l-projection  operators is LMAX  =           6
   number of lm-projection operators is LMMAX =          18
 
 POTCAR:    PAW_PBE Co_pv 23Apr2009               
   VRHFIN =Co: 3pd7s1                                                                               
   LEXCH  = PE                                                                                      
   EATOM  =  2948.1334 eV,  216.6817 Ry                                                             
                                                                                                    
   TITEL  = PAW_PBE Co_pv 23Apr2009                                                                 
   LULTRA =        F    use ultrasoft PP ?                                                          
   IUNSCR =        1    unscreen: 0-lin 1-nonlin 2-no                                               
   RPACOR =    2.000    partial core radius                                                         
   POMASS =   58.933; ZVAL   =   15.000    mass and valenz                                          
   RCORE  =    2.300    outmost cutoff radius                                                       
   RWIGS  =    2.460; RWIGS  =    1.302    wigner-seitz radius (au A)                               
   ENMAX  =  271.042; ENMIN  =  203.281 eV                                                          
   ICORE  =        3    local potential                                                             
   LCOR   =        T    correct aug charges                                                         
   LPAW   =        T    paw PP                                                                      
   EAUG   =  543.066                                                                                
   DEXC   =    0.000                                                                                
   RMAX   =    2.360    core radius for proj-oper                                                   
   RAUG   =    1.300    factor for augmentation sphere                                              
   RDEP   =    2.393    radius for radial grids                                                     
   RDEPT  =    1.841    core radius for aug-charge                                                  
                                                                                                    
   Atomic configuration                                                                             
    8 entries                                                                                       
     n  l   j            E        occ.                                                              
     1  0  0.50     -7587.6674   2.0000                                                             
     2  0  0.50      -893.6084   2.0000                                                             
     2  1  1.50      -764.5805   6.0000                                                             
     3  0  0.50       -97.5973   2.0000                                                             
     3  1  1.50       -60.9648   6.0000                                                             
     3  2  2.50        -4.2382   8.0000                                                             
     4  0  0.50        -4.3746   1.0000                                                             
     4  3  2.50        -1.3606   0.0000                                                             
   Description                                                                                      
     l       E           TYP  RCUT    TYP  RCUT                                                     
     1    -60.9647990     23  2.000                                                                 
     1     -5.4423304     23  2.000                                                                 
     2     -4.2382362     23  2.300                                                                 
     2     -5.5988188     23  2.300                                                                 
     0     -4.3745797     23  2.300                                                                 
     0      5.7660125     23  2.300                                                                 
     3     -1.3605826     23  2.300                                                                 
  local pseudopotential read in
  partial core-charges read in
  partial kinetic energy density read in
  atomic valenz-charges read in
  non local Contribution for L=           1  read in
    real space projection operators read in
  non local Contribution for L=           1  read in
    real space projection operators read in
  non local Contribution for L=           2  read in
    real space projection operators read in
  non local Contribution for L=           2  read in
    real space projection operators read in
  non local Contribution for L=           0  read in
    real space projection operators read in
  non local Contribution for L=           0  read in
    real space projection operators read in
    PAW grid and wavefunctions read in
 
   number of l-projection  operators is LMAX  =           6
   number of lm-projection operators is LMMAX =          18
 
 POTCAR:       PAW_PBE Si 05Jan2001               
   VRHFIN =Si: s2p2                                                                                 
   LEXCH  = PE                                                                                      
   EATOM  =   103.0669 eV,    7.5752 Ry                                                             
                                                                                                    
   TITEL  = PAW_PBE Si 05Jan2001                                                                    
   LULTRA =        F    use ultrasoft PP ?                                                          
   IUNSCR =        1    unscreen: 0-lin 1-nonlin 2-no                                               
   RPACOR =    1.500    partial core radius                                                         
   POMASS =   28.085; ZVAL   =    4.000    mass and valenz                                          
   RCORE  =    1.900    outmost cutoff radius                                                       
   RWIGS  =    2.480; RWIGS  =    1.312    wigner-seitz radius (au A)                               
   ENMAX  =  245.345; ENMIN  =  184.009 eV                                                          
   ICORE  =        2    local potential                                                             
   LCOR   =        T    correct aug charges                                                         
   LPAW   =        T    paw PP                                                                      
   EAUG   =  322.069                                                                                
   DEXC   =    0.000                                                                                
   RMAX   =    1.950    core radius for proj-oper                                                   
   RAUG   =    1.300    factor for augmentation sphere                                              
   RDEP   =    1.993    radius for radial grids                                                     
   RDEPT  =    1.837    core radius for aug-charge                                                  
                                                                                                    
   Atomic configuration                                                                             
    6 entries                                                                                       
     n  l   j            E        occ.                                                              
     1  0  0.50     -1785.8828   2.0000                                                             
     2  0  0.50      -139.4969   2.0000                                                             
     2  1  1.50       -95.5546   6.0000                                                             
     3  0  0.50       -10.8127   2.0000                                                             
     3  1  0.50        -4.0811   2.0000                                                             
     3  2  1.50        -4.0817   0.0000                                                             
   Description                                                                                      
     l       E           TYP  RCUT    TYP  RCUT                                                     
     0    -10.8127223     23  1.900                                                                 
     0     -7.6451159     23  1.900                                                                 
     1     -4.0811372     23  1.900                                                                 
     1      2.4879257     23  1.900                                                                 
     2     -4.0817478      7  1.900                                                                 
  local pseudopotential read in
  partial core-charges read in
  partial kinetic energy density read in
  atomic valenz-charges read in
  non local Contribution for L=           0  read in
    real space projection operators read in
  non local Contribution for L=           0  read in
    real space projection operators read in
  non local Contribution for L=           1  read in
    real space projection operators read in
  non local Contribution for L=           1  read in
    real space projection operators read in
    PAW grid and wavefunctions read in
 
   number of l-projection  operators is LMAX  =           4
   number of lm-projection operators is LMMAX =           8
 
 Optimization of the real space projectors (new method)

 maximal supplied QI-value         = 17.01
 optimisation between [QCUT,QGAM] = [ 11.40, 22.79] = [ 36.36,145.44] Ry 
 Optimized for a Real-space Cutoff    1.47 Angstroem

   l    n(q)    QCUT    max X(q) W(low)/X(q) W(high)/X(q)  e(spline) 
   1     10    11.395     4.267    0.90E-04    0.11E-03    0.18E-06
   1     10    11.395     5.750    0.14E-03    0.15E-03    0.25E-06
   2      9    11.395    53.656    0.13E-03    0.36E-04    0.15E-06
   2      9    11.395    49.521    0.14E-03    0.36E-04    0.15E-06
   0     10    11.395    31.246    0.58E-04    0.17E-05    0.98E-07
   0     10    11.395    12.201    0.41E-04    0.11E-05    0.82E-07
 Optimization of the real space projectors (new method)

 maximal supplied QI-value         = 16.25
 optimisation between [QCUT,QGAM] = [ 11.38, 22.75] = [ 36.24,144.96] Ry 
 Optimized for a Real-space Cutoff    1.47 Angstroem

   l    n(q)    QCUT    max X(q) W(low)/X(q) W(high)/X(q)  e(spline) 
   1     10    11.376     4.946    0.88E-04    0.16E-03    0.15E-06
   1     10    11.376     5.991    0.13E-03    0.24E-03    0.21E-06
   2      9    11.376    46.947    0.87E-04    0.91E-04    0.20E-06
   2      9    11.376    42.928    0.91E-04    0.94E-04    0.20E-06
   0     10    11.376    68.324    0.58E-04    0.21E-04    0.82E-07
   0     10    11.376    36.926    0.52E-04    0.19E-04    0.78E-07
 Optimization of the real space projectors (new method)

 maximal supplied QI-value         = 19.84
 optimisation between [QCUT,QGAM] = [ 11.31, 22.82] = [ 35.82,145.81] Ry 
 Optimized for a Real-space Cutoff    1.20 Angstroem

   l    n(q)    QCUT    max X(q) W(low)/X(q) W(high)/X(q)  e(spline) 
   0      8    11.310   159.560    0.13E-03    0.16E-03    0.42E-07
   0      8    11.310   115.863    0.12E-03    0.16E-03    0.41E-07
   1      8    11.310    88.339    0.16E-03    0.14E-03    0.80E-07
   1      8    11.310    48.592    0.16E-03    0.14E-03    0.78E-07
  PAW_PBE Fe_pv 02Aug2007               :
 energy of atom  1       EATOM=-2457.4239
 kinetic energy error for atom=    0.0069 (will be added to EATOM!!)
  PAW_PBE Co_pv 23Apr2009               :
 energy of atom  2       EATOM=-2948.1334
 kinetic energy error for atom=    0.0060 (will be added to EATOM!!)
     PAW_PBE Si 05Jan2001               :
 energy of atom  3       EATOM= -103.0669
 kinetic energy error for atom=    0.0006 (will be added to EATOM!!)
 
 
 POSCAR: Heusler tetragonGa
  positions in direct lattice
  velocities in cartesian coordinates
 exchange correlation table for  LEXCH =        8
   RHO(1)=    0.500       N(1)  =     2000
   RHO(2)=  100.500       N(2)  =     4000
 


--------------------------------------------------------------------------------------------------------


 ion  position               nearest neighbor table
   1  0.500  0.000  0.500-   5 2.42   6 2.42   7 2.42   8 2.42  13 2.42  14 2.42  15 2.42  16 2.42

   2  0.000  0.500  0.500-   5 2.42   6 2.42   7 2.42   8 2.42  13 2.42  14 2.42  15 2.42  16 2.42

   3  0.500  0.500  0.000-   5 2.42   6 2.42   7 2.42   8 2.42  13 2.42  14 2.42  15 2.42  16 2.42

   4  0.000  0.000  0.000-   5 2.42   6 2.42   7 2.42   8 2.42  13 2.42  14 2.42  15 2.42  16 2.42

   5  0.250  0.250  0.750-   1 2.42   2 2.42   3 2.42   4 2.42   9 2.42  10 2.42  11 2.42  12 2.42

   6  0.250  0.750  0.250-   1 2.42   2 2.42   3 2.42   4 2.42   9 2.42  10 2.42  11 2.42  12 2.42

   7  0.750  0.250  0.250-   1 2.42   2 2.42   3 2.42   4 2.42   9 2.42  10 2.42  11 2.42  12 2.42

   8  0.750  0.750  0.750-   1 2.42   2 2.42   3 2.42   4 2.42   9 2.42  10 2.42  11 2.42  12 2.42

   9  0.500  0.000  0.000-   5 2.42   6 2.42   7 2.42   8 2.42  13 2.42  14 2.42  15 2.42  16 2.42

  10  0.000  0.500  0.000-   5 2.42   6 2.42   7 2.42   8 2.42  13 2.42  14 2.42  15 2.42  16 2.42

  11  0.000  0.000  0.500-   5 2.42   6 2.42   7 2.42   8 2.42  13 2.42  14 2.42  15 2.42  16 2.42

  12  0.500  0.500  0.500-   5 2.42   6 2.42   7 2.42   8 2.42  13 2.42  14 2.42  15 2.42  16 2.42

  13  0.250  0.250  0.250-   1 2.42   2 2.42   3 2.42   4 2.42   9 2.42  10 2.42  11 2.42  12 2.42

  14  0.750  0.250  0.750-   1 2.42   2 2.42   3 2.42   4 2.42   9 2.42  10 2.42  11 2.42  12 2.42

  15  0.250  0.750  0.750-   1 2.42   2 2.42   3 2.42   4 2.42   9 2.42  10 2.42  11 2.42  12 2.42

  16  0.750  0.750  0.250-   1 2.42   2 2.42   3 2.42   4 2.42   9 2.42  10 2.42  11 2.42  12 2.42

 
  LATTYP: Found a simple tetragonal cell.
 ALAT       =     5.5993035710
 C/A-ratio  =     0.9998507382
  
  Lattice vectors:
  
 A1 = (   5.5993035710,   0.0000000000,   0.0000000000)
 A2 = (   0.0000000000,   5.5993035710,   0.0000000000)
 A3 = (   0.0000000000,   0.0000000000,   5.5984678087)


Analysis of symmetry for initial positions (statically):
=====================================================================
 Subroutine PRICEL returns following result:
 
  LATTYP: Found a body centered tetragonal cell.
 ALAT       =     3.9593055250
 C/A-ratio  =     1.4140024743
  
  Lattice vectors:
  
 A1 = (   2.7996517855,   0.0000000000,   2.7992339044)
 A2 = (  -2.7996517855,   0.0000000000,   2.7992339044)
 A3 = (   0.0000000000,  -2.7996517855,  -2.7992339044)
 
   4 primitive cells build up your supercell.
 

 Routine SETGRP: Setting up the symmetry group for a 
 simple tetragonal supercell.


 Subroutine GETGRP returns: Found  8 space group operations
 (whereof  8 operations were pure point group operations)
 out of a pool of 16 trial point group operations.


The static configuration has the point symmetry D_2d.


Analysis of symmetry for dynamics (positions and initial velocities):
=====================================================================
 Subroutine PRICEL returns following result:
 
  LATTYP: Found a body centered tetragonal cell.
 ALAT       =     3.9593055250
 C/A-ratio  =     1.4140024743
  
  Lattice vectors:
  
 A1 = (   2.7996517855,   0.0000000000,   2.7992339044)
 A2 = (  -2.7996517855,   0.0000000000,   2.7992339044)
 A3 = (   0.0000000000,  -2.7996517855,  -2.7992339044)
 
   4 primitive cells build up your supercell.
 

 Routine SETGRP: Setting up the symmetry group for a 
 simple tetragonal supercell.


 Subroutine GETGRP returns: Found  8 space group operations
 (whereof  8 operations were pure point group operations)
 out of a pool of 16 trial point group operations.


The dynamic configuration has the point symmetry D_2d.


Analysis of structural, dynamic, and magnetic symmetry:
=====================================================================
 Subroutine PRICEL returns following result:
 
  LATTYP: Found a body centered tetragonal cell.
 ALAT       =     3.9593055250
 C/A-ratio  =     1.4140024743
  
  Lattice vectors:
  
 A1 = (   2.7996517855,   0.0000000000,   2.7992339044)
 A2 = (  -2.7996517855,   0.0000000000,   2.7992339044)
 A3 = (   0.0000000000,  -2.7996517855,  -2.7992339044)
 
   4 primitive cells build up your supercell.
 

 Routine SETGRP: Setting up the symmetry group for a 
 simple tetragonal supercell.


 Subroutine GETGRP returns: Found  8 space group operations
 (whereof  8 operations were pure point group operations)
 out of a pool of 16 trial point group operations.


The magnetic configuration has the point symmetry D_2d.


 Subroutine INISYM returns: Found  8 space group operations
 (whereof  8 operations are pure point group operations),
 and found     4 'primitive' translations


----------------------------------------------------------------------------------------

                                     Primitive cell                                     

  volume of cell :      43.8811

  direct lattice vectors                    reciprocal lattice vectors
     2.799651786  0.000000000  2.799233904     0.178593639 -0.178593639  0.178620300
    -2.799651786  0.000000000  2.799233904    -0.178593639 -0.178593639  0.178620300
     0.000000000 -2.799651786 -2.799233904     0.000000000 -0.357187278  0.000000000

  length of vectors
     3.959010049  3.959010049  3.959010049     0.309348650  0.309348650  0.357187278

  position of ions in fractional coordinates (direct lattice)
     0.000000000  0.000000000  0.000000000
     0.750000000  0.250000000  0.500000000
     0.500000000  0.500000000  0.000000000
     0.250000000  0.750000000  0.500000000

  ion indices of the primitive-cell ions
   primitive index   ion index
                 1           1
                 2           5
                 3           9
                 4          13

----------------------------------------------------------------------------------------

 
 
 KPOINTS: Ni7CoMn5CrSn2                           

Automatic generation of k-mesh.
Space group operators:
 irot       det(A)        alpha          n_x          n_y          n_z        tau_x        tau_y        tau_z
    1     1.000000     0.000000     1.000000     0.000000     0.000000     0.000000     0.000000     0.000000
    2    -1.000000    90.000000     0.000000     0.000000    -1.000000     0.000000     0.000000     0.000000
    3     1.000000   180.000000     0.000000     0.000000     1.000000     0.000000     0.000000     0.000000
    4    -1.000000    90.000000     0.000000     0.000000     1.000000     0.000000     0.000000     0.000000
    5     1.000000   180.000000     0.000000     1.000000     0.000000     0.000000     0.000000     0.000000
    6    -1.000000   180.000000     0.707107     0.707107     0.000000     0.000000     0.000000     0.000000
    7     1.000000   180.000000     1.000000     0.000000     0.000000     0.000000     0.000000     0.000000
    8    -1.000000   180.000000     0.707107    -0.707107     0.000000     0.000000     0.000000     0.000000
 
 Subroutine IBZKPT returns following result:
 ===========================================
 
 Found     40 irreducible k-points:
 
 Following reciprocal coordinates:
            Coordinates               Weight
  0.062500  0.062500  0.062500      8.000000
  0.187500  0.062500  0.062500     16.000000
  0.312500  0.062500  0.062500     16.000000
  0.437500  0.062500  0.062500     16.000000
  0.187500  0.187500  0.062500      8.000000
  0.312500  0.187500  0.062500     16.000000
  0.437500  0.187500  0.062500     16.000000
  0.312500  0.312500  0.062500      8.000000
  0.437500  0.312500  0.062500     16.000000
  0.437500  0.437500  0.062500      8.000000
  0.062500  0.062500  0.187500      8.000000
  0.187500  0.062500  0.187500     16.000000
  0.312500  0.062500  0.187500     16.000000
  0.437500  0.062500  0.187500     16.000000
  0.187500  0.187500  0.187500      8.000000
  0.312500  0.187500  0.187500     16.000000
  0.437500  0.187500  0.187500     16.000000
  0.312500  0.312500  0.187500      8.000000
  0.437500  0.312500  0.187500     16.000000
  0.437500  0.437500  0.187500      8.000000
  0.062500  0.062500  0.312500      8.000000
  0.187500  0.062500  0.312500     16.000000
  0.312500  0.062500  0.312500     16.000000
  0.437500  0.062500  0.312500     16.000000
  0.187500  0.187500  0.312500      8.000000
  0.312500  0.187500  0.312500     16.000000
  0.437500  0.187500  0.312500     16.000000
  0.312500  0.312500  0.312500      8.000000
  0.437500  0.312500  0.312500     16.000000
  0.437500  0.437500  0.312500      8.000000
  0.062500  0.062500  0.437500      8.000000
  0.187500  0.062500  0.437500     16.000000
  0.312500  0.062500  0.437500     16.000000
  0.437500  0.062500  0.437500     16.000000
  0.187500  0.187500  0.437500      8.000000
  0.312500  0.187500  0.437500     16.000000
  0.437500  0.187500  0.437500     16.000000
  0.312500  0.312500  0.437500      8.000000
  0.437500  0.312500  0.437500     16.000000
  0.437500  0.437500  0.437500      8.000000
 
 Following cartesian coordinates:
            Coordinates               Weight
  0.064740  0.064740  0.064750      8.000000
  0.194221  0.064740  0.064750     16.000000
  0.323701  0.064740  0.064750     16.000000
  0.453181  0.064740  0.064750     16.000000
  0.194221  0.194221  0.064750      8.000000
  0.323701  0.194221  0.064750     16.000000
  0.453181  0.194221  0.064750     16.000000
  0.323701  0.323701  0.064750      8.000000
  0.453181  0.323701  0.064750     16.000000
  0.453181  0.453181  0.064750      8.000000
  0.064740  0.064740  0.194250      8.000000
  0.194221  0.064740  0.194250     16.000000
  0.323701  0.064740  0.194250     16.000000
  0.453181  0.064740  0.194250     16.000000
  0.194221  0.194221  0.194250      8.000000
  0.323701  0.194221  0.194250     16.000000
  0.453181  0.194221  0.194250     16.000000
  0.323701  0.323701  0.194250      8.000000
  0.453181  0.323701  0.194250     16.000000
  0.453181  0.453181  0.194250      8.000000
  0.064740  0.064740  0.323749      8.000000
  0.194221  0.064740  0.323749     16.000000
  0.323701  0.064740  0.323749     16.000000
  0.453181  0.064740  0.323749     16.000000
  0.194221  0.194221  0.323749      8.000000
  0.323701  0.194221  0.323749     16.000000
  0.453181  0.194221  0.323749     16.000000
  0.323701  0.323701  0.323749      8.000000
  0.453181  0.323701  0.323749     16.000000
  0.453181  0.453181  0.323749      8.000000
  0.064740  0.064740  0.453249      8.000000
  0.194221  0.064740  0.453249     16.000000
  0.323701  0.064740  0.453249     16.000000
  0.453181  0.064740  0.453249     16.000000
  0.194221  0.194221  0.453249      8.000000
  0.323701  0.194221  0.453249     16.000000
  0.453181  0.194221  0.453249     16.000000
  0.323701  0.323701  0.453249      8.000000
  0.453181  0.323701  0.453249     16.000000
  0.453181  0.453181  0.453249      8.000000
 


--------------------------------------------------------------------------------------------------------




 Dimension of arrays:
   k-points           NKPTS =     40   k-points in BZ     NKDIM =     40   number of bands    NBANDS=    128
   number of dos      NEDOS =   1500   number of ions     NIONS =     16
   non local maximal  LDIM  =      6   non local SUM 2l+1 LMDIM =     18
   total plane-waves  NPLWV =  74088
   max r-space proj   IRMAX =   5716   max aug-charges    IRDMAX= 113088
   dimension x,y,z NGX =    42 NGY =   42 NGZ =   42
   dimension x,y,z NGXF=    84 NGYF=   84 NGZF=   84
   support grid    NGXF=   168 NGYF=  168 NGZF=  168
   ions per type =               8   4   4
   NGX,Y,Z   is equivalent  to a cutoff of  12.47, 12.47, 12.47 a.u.
   NGXF,Y,Z  is equivalent  to a cutoff of  24.94, 24.94, 24.94 a.u.

 SYSTEM =  NiCoMnGa                                
 POSCAR =  Heusler tetragonGa                      

 Startparameter for this run:
   NWRITE =      2    write-flag & timer
   PREC   = accura    normal or accurate (medium, high low for compatibility)
   ISTART =      0    job   : 0-new  1-cont  2-samecut
   ICHARG =      2    charge: 1-file 2-atom 10-const
   ISPIN  =      2    spin polarized calculation?
   LNONCOLLINEAR =      F non collinear calculations
   LSORBIT =      F    spin-orbit coupling
   INIWAV =      1    electr: 0-lowe 1-rand  2-diag
   LASPH  =      F    aspherical Exc in radial PAW
   METAGGA=      F    non-selfconsistent MetaGGA calc.

 Electronic Relaxation 1
   ENCUT  =  500.0 eV  36.75 Ry    6.06 a.u.  10.21 10.21 10.21*2*pi/ulx,y,z
   ENINI  =  500.0     initial cutoff
   ENAUG  =  578.3 eV  augmentation charge cutoff
   NELM   =    160;   NELMIN=  2; NELMDL= -6     # of ELM steps 
   EDIFF  = 0.1E-05   stopping-criterion for ELM
   LREAL  =      T    real-space projection
   NLSPLINE    = F    spline interpolate recip. space projectors
   LCOMPAT=      F    compatible to vasp.4.4
   GGA_COMPAT  = T    GGA compatible to vasp.4.4-vasp.4.6
   LMAXPAW     = -100 max onsite density
   LMAXMIX     =    6 max onsite mixed and CHGCAR
   VOSKOWN=      0    Vosko Wilk Nusair interpolation
   ROPT   =   -0.00025  -0.00025  -0.00025
 Ionic relaxation
   EDIFFG = -.1E-02   stopping-criterion for IOM
   NSW    =      0    number of steps for IOM
   NBLOCK =      1;   KBLOCK =      1    inner block; outer block 
   IBRION =     -1    ionic relax: 0-MD 1-quasi-New 2-CG
   NFREE  =      1    steps in history (QN), initial steepest desc. (CG)
   ISIF   =      3    stress and relaxation
   IWAVPR =     10    prediction:  0-non 1-charg 2-wave 3-comb
   ISYM   =      2    0-nonsym 1-usesym 2-fastsym
   LCORR  =      T    Harris-Foulkes like correction to forces

   POTIM  = 0.0050    time-step for ionic-motion
   TEIN   =    0.0    initial temperature
   TEBEG  =    0.0;   TEEND  =   0.0 temperature during run
   SMASS  =  -3.00    Nose mass-parameter (am)
   estimated Nose-frequenzy (Omega)   =  0.10E-29 period in steps = 0.13E+49 mass=  -0.716E-27a.u.
   SCALEE = 1.0000    scale energy and forces
   NPACO  =    256;   APACO  = 16.0  distance and # of slots for P.C.
   PSTRESS=    0.0 pullay stress

  Mass of Ions in am
   POMASS =  55.85 58.93 28.09
  Ionic Valenz
   ZVAL   =  14.00 15.00  4.00
  Atomic Wigner-Seitz radii
   RWIGS  =   1.16  1.16  1.16
  virtual crystal weights 
   VCA    =   1.00  1.00  1.00
   NELECT =     188.0000    total number of electrons
   NUPDOWN=      -1.0000    fix difference up-down

 DOS related values:
   EMIN   =  10.00;   EMAX   =-10.00  energy-range for DOS
   EFERMI =   0.00
   ISMEAR =     1;   SIGMA  =   0.10  broadening in eV -4-tet -1-fermi 0-gaus

 Electronic relaxation 2 (details)
   IALGO  =     38    algorithm
   LDIAG  =      T    sub-space diagonalisation (order eigenvalues)
   LSUBROT=      F    optimize rotation matrix (better conditioning)
   TURBO    =      0    0=normal 1=particle mesh
   IRESTART =      0    0=no restart 2=restart with 2 vectors
   NREBOOT  =      0    no. of reboots
   NMIN     =      0    reboot dimension
   EREF     =   0.00    reference energy to select bands
   IMIX   =      4    mixing-type and parameters
     AMIX     =   0.18;   BMIX     =  0.00
     AMIX_MAG =   0.26;   BMIX_MAG =  0.01
     AMIN     =   0.10
     WC   =   100.;   INIMIX=   1;  MIXPRE=   1;  MAXMIX= -45

 Intra band minimization:
   WEIMIN = 0.0000     energy-eigenvalue tresh-hold
   EBREAK =  0.20E-08  absolut break condition
   DEPER  =   0.30     relativ break condition  

   TIME   =   0.40     timestep for ELM

  volume/ion in A,a.u.               =      10.97        74.03
  Fermi-wavevector in a.u.,A,eV,Ry     =   1.675001  3.165293 38.172886  2.805628
  Thomas-Fermi vector in A             =   2.759697
 
 Write flags
   LWAVE        =      F    write WAVECAR
   LDOWNSAMPLE  =      F    k-point downsampling of WAVECAR
   LCHARG       =      T    write CHGCAR
   LVTOT        =      F    write LOCPOT, total local potential
   LVHAR        =      F    write LOCPOT, Hartree potential only
   LELF         =      F    write electronic localiz. function (ELF)
   LORBIT       =     10    0 simple, 1 ext, 2 COOP (PROOUT), +10 PAW based schemes


 Dipole corrections
   LMONO  =      F    monopole corrections only (constant potential shift)
   LDIPOL =      F    correct potential (dipole corrections)
   IDIPOL =      0    1-x, 2-y, 3-z, 4-all directions 
   EPSILON=  1.0000000 bulk dielectric constant

 Exchange correlation treatment:
   GGA     =    --    GGA type
   LEXCH   =     8    internal setting for exchange type
   VOSKOWN=      0    Vosko Wilk Nusair interpolation
   LHFCALC =     F    Hartree Fock is set to
   LHFONE  =     F    Hartree Fock one center treatment
   AEXX    =    0.0000 exact exchange contribution

 Linear response parameters
   LEPSILON=     F    determine dielectric tensor
   LRPA    =     F    only Hartree local field effects (RPA)
   LNABLA  =     F    use nabla operator in PAW spheres
   LVEL    =     F    velocity operator in full k-point grid
   LINTERFAST=   F  fast interpolation
   KINTER  =     0    interpolate to denser k-point grid
   CSHIFT  =0.1000    complex shift for real part using Kramers Kronig
   OMEGAMAX=  -1.0    maximum frequency
   DEG_THRESHOLD= 0.2000000E-02 threshold for treating states as degnerate
   RTIME   =   -0.100 relaxation time in fs
  (WPLASMAI=    0.000 imaginary part of plasma frequency in eV, 0.658/RTIME)
   DFIELD  = 0.0000000 0.0000000 0.0000000 field for delta impulse in time
 
 Orbital magnetization related:
   ORBITALMAG=     F  switch on orbital magnetization
   LCHIMAG   =     F  perturbation theory with respect to B field
   DQ        =  0.001000  dq finite difference perturbation B field
   LLRAUG    =     F  two centre corrections for induced B field



--------------------------------------------------------------------------------------------------------


 Static calculation
 charge density and potential will be updated during run
 spin polarized calculation
 Variant of blocked Davidson
 Davidson routine will perform the subspace rotation
 perform sub-space diagonalisation
    after iterative eigenvector-optimisation
 modified Broyden-mixing scheme, WC =      100.0
 initial mixing is a Kerker type mixing with AMIX =  0.1800 and BMIX =      0.0025
 Hartree-type preconditioning will be used
 using additional bands           34
 real space projection scheme for non local part
 use partial core corrections
 calculate Harris-corrections to forces 
   (improved forces if not selfconsistent)
 use gradient corrections 
 use of overlap-Matrix (Vanderbilt PP)
 Methfessel and Paxton  Order N= 1 SIGMA  =   0.10


--------------------------------------------------------------------------------------------------------


  energy-cutoff  :      500.00
  volume of cell :      175.52
      direct lattice vectors                 reciprocal lattice vectors
     5.599303571  0.000000000  0.000000000     0.178593639  0.000000000  0.000000000
     0.000000000  5.599303571  0.000000000     0.000000000  0.178593639  0.000000000
     0.000000000  0.000000000  5.598467809     0.000000000  0.000000000  0.178620300

  length of vectors
     5.599303571  5.599303571  5.598467809     0.178593639  0.178593639  0.178620300


 
 k-points in units of 2pi/SCALE and weight: Ni7CoMn5CrSn2                           
   0.06474019  0.06474019  0.06474986       0.016
   0.19422058  0.06474019  0.06474986       0.031
   0.32370097  0.06474019  0.06474986       0.031
   0.45318136  0.06474019  0.06474986       0.031
   0.19422058  0.19422058  0.06474986       0.016
   0.32370097  0.19422058  0.06474986       0.031
   0.45318136  0.19422058  0.06474986       0.031
   0.32370097  0.32370097  0.06474986       0.016
   0.45318136  0.32370097  0.06474986       0.031
   0.45318136  0.45318136  0.06474986       0.016
   0.06474019  0.06474019  0.19424958       0.016
   0.19422058  0.06474019  0.19424958       0.031
   0.32370097  0.06474019  0.19424958       0.031
   0.45318136  0.06474019  0.19424958       0.031
   0.19422058  0.19422058  0.19424958       0.016
   0.32370097  0.19422058  0.19424958       0.031
   0.45318136  0.19422058  0.19424958       0.031
   0.32370097  0.32370097  0.19424958       0.016
   0.45318136  0.32370097  0.19424958       0.031
   0.45318136  0.45318136  0.19424958       0.016
   0.06474019  0.06474019  0.32374929       0.016
   0.19422058  0.06474019  0.32374929       0.031
   0.32370097  0.06474019  0.32374929       0.031
   0.45318136  0.06474019  0.32374929       0.031
   0.19422058  0.19422058  0.32374929       0.016
   0.32370097  0.19422058  0.32374929       0.031
   0.45318136  0.19422058  0.32374929       0.031
   0.32370097  0.32370097  0.32374929       0.016
   0.45318136  0.32370097  0.32374929       0.031
   0.45318136  0.45318136  0.32374929       0.016
   0.06474019  0.06474019  0.45324901       0.016
   0.19422058  0.06474019  0.45324901       0.031
   0.32370097  0.06474019  0.45324901       0.031
   0.45318136  0.06474019  0.45324901       0.031
   0.19422058  0.19422058  0.45324901       0.016
   0.32370097  0.19422058  0.45324901       0.031
   0.45318136  0.19422058  0.45324901       0.031
   0.32370097  0.32370097  0.45324901       0.016
   0.45318136  0.32370097  0.45324901       0.031
   0.45318136  0.45318136  0.45324901       0.016
 
 k-points in reciprocal lattice and weights: Ni7CoMn5CrSn2                           
   0.06250000  0.06250000  0.06250000       0.016
   0.18750000  0.06250000  0.06250000       0.031
   0.31250000  0.06250000  0.06250000       0.031
   0.43750000  0.06250000  0.06250000       0.031
   0.18750000  0.18750000  0.06250000       0.016
   0.31250000  0.18750000  0.06250000       0.031
   0.43750000  0.18750000  0.06250000       0.031
   0.31250000  0.31250000  0.06250000       0.016
   0.43750000  0.31250000  0.06250000       0.031
   0.43750000  0.43750000  0.06250000       0.016
   0.06250000  0.06250000  0.18750000       0.016
   0.18750000  0.06250000  0.18750000       0.031
   0.31250000  0.06250000  0.18750000       0.031
   0.43750000  0.06250000  0.18750000       0.031
   0.18750000  0.18750000  0.18750000       0.016
   0.31250000  0.18750000  0.18750000       0.031
   0.43750000  0.18750000  0.18750000       0.031
   0.31250000  0.31250000  0.18750000       0.016
   0.43750000  0.31250000  0.18750000       0.031
   0.43750000  0.43750000  0.18750000       0.016
   0.06250000  0.06250000  0.31250000       0.016
   0.18750000  0.06250000  0.31250000       0.031
   0.31250000  0.06250000  0.31250000       0.031
   0.43750000  0.06250000  0.31250000       0.031
   0.18750000  0.18750000  0.31250000       0.016
   0.31250000  0.18750000  0.31250000       0.031
   0.43750000  0.18750000  0.31250000       0.031
   0.31250000  0.31250000  0.31250000       0.016
   0.43750000  0.31250000  0.31250000       0.031
   0.43750000  0.43750000  0.31250000       0.016
   0.06250000  0.06250000  0.43750000       0.016
   0.18750000  0.06250000  0.43750000       0.031
   0.31250000  0.06250000  0.43750000       0.031
   0.43750000  0.06250000  0.43750000       0.031
   0.18750000  0.18750000  0.43750000       0.016
   0.31250000  0.18750000  0.43750000       0.031
   0.43750000  0.18750000  0.43750000       0.031
   0.31250000  0.31250000  0.43750000       0.016
   0.43750000  0.31250000  0.43750000       0.031
   0.43750000  0.43750000  0.43750000       0.016
 
 position of ions in fractional coordinates (direct lattice) 
   0.50000000  0.00000000  0.50000000
   0.00000000  0.50000000  0.50000000
   0.50000000  0.50000000  0.00000000
   0.00000000  0.00000000  0.00000000
   0.25000000  0.25000000  0.75000000
   0.25000000  0.75000000  0.25000000
   0.75000000  0.25000000  0.25000000
   0.75000000  0.75000000  0.75000000
   0.50000000  0.00000000  0.00000000
   0.00000000  0.50000000  0.00000000
   0.00000000  0.00000000  0.50000000
   0.50000000  0.50000000  0.50000000
   0.25000000  0.25000000  0.25000000
   0.75000000  0.25000000  0.75000000
   0.25000000  0.75000000  0.75000000
   0.75000000  0.75000000  0.25000000
 
 position of ions in cartesian coordinates  (Angst):
   2.79965179  0.00000000  2.79923390
   0.00000000  2.79965179  2.79923390
   2.79965179  2.79965179  0.00000000
   0.00000000  0.00000000  0.00000000
   1.39982589  1.39982589  4.19885086
   1.39982589  4.19947768  1.39961695
   4.19947768  1.39982589  1.39961695
   4.19947768  4.19947768  4.19885086
   2.79965179  0.00000000  0.00000000
   0.00000000  2.79965179  0.00000000
   0.00000000  0.00000000  2.79923390
   2.79965179  2.79965179  2.79923390
   1.39982589  1.39982589  1.39961695
   4.19947768  1.39982589  4.19885086
   1.39982589  4.19947768  4.19885086
   4.19947768  4.19947768  1.39961695
 


--------------------------------------------------------------------------------------------------------


 k-point   1 :   0.0625 0.0625 0.0625  plane waves:    4475
 k-point   2 :   0.1875 0.0625 0.0625  plane waves:    4468
 k-point   3 :   0.3125 0.0625 0.0625  plane waves:    4457
 k-point   4 :   0.4375 0.0625 0.0625  plane waves:    4449
 k-point   5 :   0.1875 0.1875 0.0625  plane waves:    4457
 k-point   6 :   0.3125 0.1875 0.0625  plane waves:    4459
 k-point   7 :   0.4375 0.1875 0.0625  plane waves:    4452
 k-point   8 :   0.3125 0.3125 0.0625  plane waves:    4456
 k-point   9 :   0.4375 0.3125 0.0625  plane waves:    4449
 k-point  10 :   0.4375 0.4375 0.0625  plane waves:    4456
 k-point  11 :   0.0625 0.0625 0.1875  plane waves:    4468
 k-point  12 :   0.1875 0.0625 0.1875  plane waves:    4457
 k-point  13 :   0.3125 0.0625 0.1875  plane waves:    4459
 k-point  14 :   0.4375 0.0625 0.1875  plane waves:    4452
 k-point  15 :   0.1875 0.1875 0.1875  plane waves:    4452
 k-point  16 :   0.3125 0.1875 0.1875  plane waves:    4451
 k-point  17 :   0.4375 0.1875 0.1875  plane waves:    4442
 k-point  18 :   0.3125 0.3125 0.1875  plane waves:    4448
 k-point  19 :   0.4375 0.3125 0.1875  plane waves:    4462
 k-point  20 :   0.4375 0.4375 0.1875  plane waves:    4467
 k-point  21 :   0.0625 0.0625 0.3125  plane waves:    4457
 k-point  22 :   0.1875 0.0625 0.3125  plane waves:    4459
 k-point  23 :   0.3125 0.0625 0.3125  plane waves:    4461
 k-point  24 :   0.4375 0.0625 0.3125  plane waves:    4449
 k-point  25 :   0.1875 0.1875 0.3125  plane waves:    4451
 k-point  26 :   0.3125 0.1875 0.3125  plane waves:    4448
 k-point  27 :   0.4375 0.1875 0.3125  plane waves:    4460
 k-point  28 :   0.3125 0.3125 0.3125  plane waves:    4440
 k-point  29 :   0.4375 0.3125 0.3125  plane waves:    4475
 k-point  30 :   0.4375 0.4375 0.3125  plane waves:    4466
 k-point  31 :   0.0625 0.0625 0.4375  plane waves:    4449
 k-point  32 :   0.1875 0.0625 0.4375  plane waves:    4452
 k-point  33 :   0.3125 0.0625 0.4375  plane waves:    4449
 k-point  34 :   0.4375 0.0625 0.4375  plane waves:    4456
 k-point  35 :   0.1875 0.1875 0.4375  plane waves:    4442
 k-point  36 :   0.3125 0.1875 0.4375  plane waves:    4461
 k-point  37 :   0.4375 0.1875 0.4375  plane waves:    4467
 k-point  38 :   0.3125 0.3125 0.4375  plane waves:    4475
 k-point  39 :   0.4375 0.3125 0.4375  plane waves:    4466
 k-point  40 :   0.4375 0.4375 0.4375  plane waves:    4466

 maximum and minimum number of plane-waves per node :       473      428

 maximum number of plane-waves:      4475
 maximum index in each direction: 
   IXMAX=   10   IYMAX=   10   IZMAX=   10
   IXMIN=  -10   IYMIN=  -10   IZMIN=  -10


 real space projection operators:
  total allocation   :       9989.12 KBytes
  max/ min on nodes  :       1084.69        856.88


 parallel 3D FFT for wavefunctions:
    minimum data exchange during FFTs selected (reduces bandwidth)
 parallel 3D FFT for charge:
    minimum data exchange during FFTs selected (reduces bandwidth)


 total amount of memory used by VASP MPI-rank0    49182. kBytes
=======================================================================

   base      :      30000. kBytes
   nonlr-proj:       2886. kBytes
   fftplans  :       3254. kBytes
   grid      :       2822. kBytes
   one-center:         62. kBytes
   wavefun   :      10158. kBytes
 
     INWAV:  cpu time    0.0000: real time    0.0000
 Broyden mixing: mesh for mixing (old mesh)
   NGX = 21   NGY = 21   NGZ = 21
  (NGX  = 84   NGY  = 84   NGZ  = 84)
  gives a total of   9261 points

 initial charge density was supplied:
 charge density of overlapping atoms calculated
 number of electron     188.0000000 magnetization      23.2000000
 keeping initial charge density in first step


--------------------------------------------------------------------------------------------------------


 Maximum index for non-local projection operator          791
 Maximum index for augmentation-charges         5254 (set IRDMAX)


--------------------------------------------------------------------------------------------------------


 First call to EWALD:  gamma=   0.317
 Maximum number of real-space cells 3x 3x 3
 Maximum number of reciprocal cells 3x 3x 3

    FEWALD:  cpu time    0.0000: real time    0.0015


--------------------------------------- Iteration      1(   1)  ---------------------------------------


    POTLOK:  cpu time    0.1480: real time    0.1849
    SETDIJ:  cpu time    0.0600: real time    0.1110
     EDDAV:  cpu time    9.6446: real time   10.5502
       DOS:  cpu time    0.0080: real time    0.0067
    --------------------------------------------
      LOOP:  cpu time    9.8606: real time   10.8528

 eigenvalue-minimisations  : 21056
 total energy-change (2. order) : 0.2697424E+04  (-0.9048563E+04)
 number of electron     188.0000000 magnetization      23.2000000
 augmentation part      188.0000000 magnetization      23.2000000

 Free energy of the ion-electron system (eV)
  ---------------------------------------------------
  alpha Z        PSCENC =      1254.44113312
  Ewald energy   TEWEN  =    -22216.45061823
  -Hartree energ DENC   =     -8638.16257975
  -exchange      EXHF   =         0.00000000
  -V(xc)+E(xc)   XCENC  =       909.42595317
  PAW double counting   =     25735.45600997   -27176.27888444
  entropy T*S    EENTRO =         0.00232108
  eigenvalues    EBANDS =       964.88037837
  atomic energy  EATOM  =     31864.11063514
  Solvation  Ediel_sol  =         0.00000000
  ---------------------------------------------------
  free energy    TOTEN  =      2697.42434842 eV

  energy without entropy =     2697.42202734  energy(sigma->0) =     2697.42357473


--------------------------------------------------------------------------------------------------------




--------------------------------------- Iteration      1(   2)  ---------------------------------------


     EDDAV:  cpu time    8.7685: real time    8.7975
       DOS:  cpu time    0.0080: real time    0.0072
    --------------------------------------------
      LOOP:  cpu time    8.7765: real time    8.8048

 eigenvalue-minimisations  : 20480
 total energy-change (2. order) :-0.2458410E+04  (-0.2338527E+04)
 number of electron     188.0000000 magnetization      23.2000000
 augmentation part      188.0000000 magnetization      23.2000000

 Free energy of the ion-electron system (eV)
  ---------------------------------------------------
  alpha Z        PSCENC =      1254.44113312
  Ewald energy   TEWEN  =    -22216.45061823
  -Hartree energ DENC   =     -8638.16257975
  -exchange      EXHF   =         0.00000000
  -V(xc)+E(xc)   XCENC  =       909.42595317
  PAW double counting   =     25735.45600997   -27176.27888444
  entropy T*S    EENTRO =        -0.00414262
  eigenvalues    EBANDS =     -1493.52327190
  atomic energy  EATOM  =     31864.11063514
  Solvation  Ediel_sol  =         0.00000000
  ---------------------------------------------------
  free energy    TOTEN  =       239.01423445 eV

  energy without entropy =      239.01837707  energy(sigma->0) =      239.01561532


--------------------------------------------------------------------------------------------------------




--------------------------------------- Iteration      1(   3)  ---------------------------------------


     EDDAV:  cpu time    8.8686: real time    8.8984
       DOS:  cpu time    0.0080: real time    0.0079
    --------------------------------------------
      LOOP:  cpu time    8.8766: real time    8.9063

 eigenvalue-minimisations  : 20872
 total energy-change (2. order) :-0.3547585E+03  (-0.3133840E+03)
 number of electron     188.0000000 magnetization      23.2000000
 augmentation part      188.0000000 magnetization      23.2000000

 Free energy of the ion-electron system (eV)
  ---------------------------------------------------
  alpha Z        PSCENC =      1254.44113312
  Ewald energy   TEWEN  =    -22216.45061823
  -Hartree energ DENC   =     -8638.16257975
  -exchange      EXHF   =         0.00000000
  -V(xc)+E(xc)   XCENC  =       909.42595317
  PAW double counting   =     25735.45600997   -27176.27888444
  entropy T*S    EENTRO =         0.00174250
  eigenvalues    EBANDS =     -1848.28766749
  atomic energy  EATOM  =     31864.11063514
  Solvation  Ediel_sol  =         0.00000000
  ---------------------------------------------------
  free energy    TOTEN  =      -115.74427602 eV

  energy without entropy =     -115.74601852  energy(sigma->0) =     -115.74485686


--------------------------------------------------------------------------------------------------------




--------------------------------------- Iteration      1(   4)  ---------------------------------------


     EDDAV:  cpu time    9.3046: real time    9.3358
       DOS:  cpu time    0.0080: real time    0.0081
    --------------------------------------------
      LOOP:  cpu time    9.3126: real time    9.3439

 eigenvalue-minimisations  : 22272
 total energy-change (2. order) :-0.2022094E+02  (-0.1984078E+02)
 number of electron     188.0000000 magnetization      23.2000000
 augmentation part      188.0000000 magnetization      23.2000000

 Free energy of the ion-electron system (eV)
  ---------------------------------------------------
  alpha Z        PSCENC =      1254.44113312
  Ewald energy   TEWEN  =    -22216.45061823
  -Hartree energ DENC   =     -8638.16257975
  -exchange      EXHF   =         0.00000000
  -V(xc)+E(xc)   XCENC  =       909.42595317
  PAW double counting   =     25735.45600997   -27176.27888444
  entropy T*S    EENTRO =         0.00138181
  eigenvalues    EBANDS =     -1868.50824558
  atomic energy  EATOM  =     31864.11063514
  Solvation  Ediel_sol  =         0.00000000
  ---------------------------------------------------
  free energy    TOTEN  =      -135.96521480 eV

  energy without entropy =     -135.96659661  energy(sigma->0) =     -135.96567540


--------------------------------------------------------------------------------------------------------




--------------------------------------- Iteration      1(   5)  ---------------------------------------


     EDDAV:  cpu time    9.2246: real time    9.2552
       DOS:  cpu time    0.0080: real time    0.0080
    --------------------------------------------
      LOOP:  cpu time    9.2326: real time    9.2631

 eigenvalue-minimisations  : 22112
 total energy-change (2. order) :-0.3752966E+00  (-0.3746036E+00)
 number of electron     188.0000000 magnetization      23.2000000
 augmentation part      188.0000000 magnetization      23.2000000

 Free energy of the ion-electron system (eV)
  ---------------------------------------------------
  alpha Z        PSCENC =      1254.44113312
  Ewald energy   TEWEN  =    -22216.45061823
  -Hartree energ DENC   =     -8638.16257975
  -exchange      EXHF   =         0.00000000
  -V(xc)+E(xc)   XCENC  =       909.42595317
  PAW double counting   =     25735.45600997   -27176.27888444
  entropy T*S    EENTRO =         0.00130242
  eigenvalues    EBANDS =     -1868.88346275
  atomic energy  EATOM  =     31864.11063514
  Solvation  Ediel_sol  =         0.00000000
  ---------------------------------------------------
  free energy    TOTEN  =      -136.34051136 eV

  energy without entropy =     -136.34181378  energy(sigma->0) =     -136.34094550


--------------------------------------------------------------------------------------------------------




--------------------------------------- Iteration      1(   6)  ---------------------------------------


     EDDAV:  cpu time    9.2686: real time    9.3002
       DOS:  cpu time    0.0080: real time    0.0081
    CHARGE:  cpu time    0.2760: real time    0.2763
    MIXING:  cpu time    0.0040: real time    0.0011
    --------------------------------------------
      LOOP:  cpu time    9.5566: real time    9.5857

 eigenvalue-minimisations  : 22200
 total energy-change (2. order) :-0.1207931E-01  (-0.1207871E-01)
 number of electron     188.0000008 magnetization      22.3673742
 augmentation part       98.7631148 magnetization      17.2230663

 Broyden mixing:
  rms(total) = 0.45480E+01    rms(broyden)= 0.45473E+01
  rms(prec ) = 0.65821E+01
  weight for this iteration     100.00

 Free energy of the ion-electron system (eV)
  ---------------------------------------------------
  alpha Z        PSCENC =      1254.44113312
  Ewald energy   TEWEN  =    -22216.45061823
  -Hartree energ DENC   =     -8638.16257975
  -exchange      EXHF   =         0.00000000
  -V(xc)+E(xc)   XCENC  =       909.42595317
  PAW double counting   =     25735.45600997   -27176.27888444
  entropy T*S    EENTRO =         0.00130095
  eigenvalues    EBANDS =     -1868.89554059
  atomic energy  EATOM  =     31864.11063514
  Solvation  Ediel_sol  =         0.00000000
  ---------------------------------------------------
  free energy    TOTEN  =      -136.35259067 eV

  energy without entropy =     -136.35389162  energy(sigma->0) =     -136.35302432


--------------------------------------------------------------------------------------------------------




--------------------------------------- Iteration      1(   7)  ---------------------------------------


    POTLOK:  cpu time    0.0560: real time    0.0600
    SETDIJ:  cpu time    0.0680: real time    0.0649
     EDDAV:  cpu time    9.1886: real time    9.2217
       DOS:  cpu time    0.0080: real time    0.0080
    CHARGE:  cpu time    0.2680: real time    0.2679
    MIXING:  cpu time    0.0040: real time    0.0021
    --------------------------------------------
      LOOP:  cpu time    9.5926: real time    9.6246

 eigenvalue-minimisations  : 21992
 total energy-change (2. order) : 0.1411228E+02  (-0.3932289E+01)
 number of electron     188.0000008 magnetization      21.6491959
 augmentation part      105.0851530 magnetization      17.2462955

 Broyden mixing:
  rms(total) = 0.26896E+01    rms(broyden)= 0.26895E+01
  rms(prec ) = 0.39806E+01
  weight for this iteration     100.00

 eigenvalues of (default mixing * dielectric matrix)
  average eigenvalue GAMMA=   0.9742
  0.9742

 Free energy of the ion-electron system (eV)
  ---------------------------------------------------
  alpha Z        PSCENC =      1254.44113312
  Ewald energy   TEWEN  =    -22216.45061823
  -Hartree energ DENC   =     -8339.44328436
  -exchange      EXHF   =         0.00000000
  -V(xc)+E(xc)   XCENC  =       897.89356867
  PAW double counting   =     26226.86385782   -27638.46174444
  entropy T*S    EENTRO =        -0.00719271
  eigenvalues    EBANDS =     -2171.18666143
  atomic energy  EATOM  =     31864.11063514
  Solvation  Ediel_sol  =         0.00000000
  ---------------------------------------------------
  free energy    TOTEN  =      -122.24030642 eV

  energy without entropy =     -122.23311371  energy(sigma->0) =     -122.23790885


--------------------------------------------------------------------------------------------------------




--------------------------------------- Iteration      1(   8)  ---------------------------------------


    POTLOK:  cpu time    0.0560: real time    0.0594
    SETDIJ:  cpu time    0.0640: real time    0.0646
     EDDAV:  cpu time    9.3646: real time    9.3937
       DOS:  cpu time    0.0080: real time    0.0079
    CHARGE:  cpu time    0.2680: real time    0.2671
    MIXING:  cpu time    0.0000: real time    0.0022
    --------------------------------------------
      LOOP:  cpu time    9.7606: real time    9.7949

 eigenvalue-minimisations  : 22552
 total energy-change (2. order) :-0.4689368E+01  (-0.1894078E+01)
 number of electron     188.0000008 magnetization      21.1714498
 augmentation part      105.9355931 magnetization      16.5193838

 Broyden mixing:
  rms(total) = 0.35758E+01    rms(broyden)= 0.35757E+01
  rms(prec ) = 0.60577E+01
  weight for this iteration     100.00

 eigenvalues of (default mixing * dielectric matrix)
  average eigenvalue GAMMA=   0.8631
  1.4396  0.2865

 Free energy of the ion-electron system (eV)
  ---------------------------------------------------
  alpha Z        PSCENC =      1254.44113312
  Ewald energy   TEWEN  =    -22216.45061823
  -Hartree energ DENC   =     -8296.96550592
  -exchange      EXHF   =         0.00000000
  -V(xc)+E(xc)   XCENC  =       895.93310924
  PAW double counting   =     26772.79955122   -28188.76727494
  entropy T*S    EENTRO =         0.00327662
  eigenvalues    EBANDS =     -2212.03398076
  atomic energy  EATOM  =     31864.11063514
  Solvation  Ediel_sol  =         0.00000000
  ---------------------------------------------------
  free energy    TOTEN  =      -126.92967452 eV

  energy without entropy =     -126.93295113  energy(sigma->0) =     -126.93076672


--------------------------------------------------------------------------------------------------------




--------------------------------------- Iteration      1(   9)  ---------------------------------------


    POTLOK:  cpu time    0.0600: real time    0.0595
    SETDIJ:  cpu time    0.0640: real time    0.0653
     EDDAV:  cpu time    9.3326: real time    9.3639
       DOS:  cpu time    0.0080: real time    0.0078
    CHARGE:  cpu time    0.2640: real time    0.2652
    MIXING:  cpu time    0.0040: real time    0.0017
    --------------------------------------------
      LOOP:  cpu time    9.7326: real time    9.7634

 eigenvalue-minimisations  : 22400
 total energy-change (2. order) : 0.5487061E+01  (-0.4237800E+00)
 number of electron     188.0000008 magnetization      20.4613263
 augmentation part      106.4343439 magnetization      16.2015530

 Broyden mixing:
  rms(total) = 0.15909E+01    rms(broyden)= 0.15908E+01
  rms(prec ) = 0.19454E+01
  weight for this iteration     100.00

 eigenvalues of (default mixing * dielectric matrix)
  average eigenvalue GAMMA=   1.3596
  2.6873  1.0669  0.3246

 Free energy of the ion-electron system (eV)
  ---------------------------------------------------
  alpha Z        PSCENC =      1254.44113312
  Ewald energy   TEWEN  =    -22216.45061823
  -Hartree energ DENC   =     -8265.05477527
  -exchange      EXHF   =         0.00000000
  -V(xc)+E(xc)   XCENC  =       894.68287568
  PAW double counting   =     27291.53515744   -28710.10880200
  entropy T*S    EENTRO =        -0.00067808
  eigenvalues    EBANDS =     -2234.59754118
  atomic energy  EATOM  =     31864.11063514
  Solvation  Ediel_sol  =         0.00000000
  ---------------------------------------------------
  free energy    TOTEN  =      -121.44261338 eV

  energy without entropy =     -121.44193530  energy(sigma->0) =     -121.44238736


--------------------------------------------------------------------------------------------------------




--------------------------------------- Iteration      1(  10)  ---------------------------------------


    POTLOK:  cpu time    0.0600: real time    0.0596
    SETDIJ:  cpu time    0.0640: real time    0.0667
     EDDAV:  cpu time    9.7326: real time    9.7650
       DOS:  cpu time    0.0080: real time    0.0080
    CHARGE:  cpu time    0.2680: real time    0.2693
    MIXING:  cpu time    0.0040: real time    0.0011
    --------------------------------------------
      LOOP:  cpu time   10.1366: real time   10.1699

 eigenvalue-minimisations  : 23696
 total energy-change (2. order) :-0.4290790E+00  (-0.2295650E+00)
 number of electron     188.0000008 magnetization      19.5097423
 augmentation part      106.1135180 magnetization      15.5624006

 Broyden mixing:
  rms(total) = 0.13401E+01    rms(broyden)= 0.13401E+01
  rms(prec ) = 0.19218E+01
  weight for this iteration     100.00

 eigenvalues of (default mixing * dielectric matrix)
  average eigenvalue GAMMA=   1.5105
  4.1907  1.1410  0.3551  0.3551

 Free energy of the ion-electron system (eV)
  ---------------------------------------------------
  alpha Z        PSCENC =      1254.44113312
  Ewald energy   TEWEN  =    -22216.45061823
  -Hartree energ DENC   =     -8253.41677264
  -exchange      EXHF   =         0.00000000
  -V(xc)+E(xc)   XCENC  =       894.19226234
  PAW double counting   =     28316.78487826   -29748.58621074
  entropy T*S    EENTRO =         0.00089470
  eigenvalues    EBANDS =     -2232.94789429
  atomic energy  EATOM  =     31864.11063514
  Solvation  Ediel_sol  =         0.00000000
  ---------------------------------------------------
  free energy    TOTEN  =      -121.87169234 eV

  energy without entropy =     -121.87258704  energy(sigma->0) =     -121.87199057


--------------------------------------------------------------------------------------------------------




--------------------------------------- Iteration      1(  11)  ---------------------------------------


    POTLOK:  cpu time    0.0560: real time    0.0595
    SETDIJ:  cpu time    0.0680: real time    0.0653
     EDDAV:  cpu time    9.7406: real time    9.7727
       DOS:  cpu time    0.0080: real time    0.0080
    CHARGE:  cpu time    0.2720: real time    0.2753
    MIXING:  cpu time    0.0040: real time    0.0024
    --------------------------------------------
      LOOP:  cpu time   10.1486: real time   10.1832

 eigenvalue-minimisations  : 23704
 total energy-change (2. order) :-0.2690685E+00  (-0.1217517E+00)
 number of electron     188.0000008 magnetization      19.1143949
 augmentation part      106.2819653 magnetization      15.1878943

 Broyden mixing:
  rms(total) = 0.10836E+01    rms(broyden)= 0.10836E+01
  rms(prec ) = 0.19855E+01
  weight for this iteration     100.00

 eigenvalues of (default mixing * dielectric matrix)
  average eigenvalue GAMMA=   1.5962
  5.3798  1.1033  0.8451  0.3409  0.3119

 Free energy of the ion-electron system (eV)
  ---------------------------------------------------
  alpha Z        PSCENC =      1254.44113312
  Ewald energy   TEWEN  =    -22216.45061823
  -Hartree energ DENC   =     -8230.78677791
  -exchange      EXHF   =         0.00000000
  -V(xc)+E(xc)   XCENC  =       893.31959339
  PAW double counting   =     29788.15652911   -31234.50072560
  entropy T*S    EENTRO =         0.00169034
  eigenvalues    EBANDS =     -2240.43222020
  atomic energy  EATOM  =     31864.11063514
  Solvation  Ediel_sol  =         0.00000000
  ---------------------------------------------------
  free energy    TOTEN  =      -122.14076086 eV

  energy without entropy =     -122.14245120  energy(sigma->0) =     -122.14132430


--------------------------------------------------------------------------------------------------------




--------------------------------------- Iteration      1(  12)  ---------------------------------------


    POTLOK:  cpu time    0.0600: real time    0.0595
    SETDIJ:  cpu time    0.0640: real time    0.0643
     EDDAV:  cpu time    9.3806: real time    9.4142
       DOS:  cpu time    0.0080: real time    0.0080
    CHARGE:  cpu time    0.2760: real time    0.2764
    MIXING:  cpu time    0.0040: real time    0.0019
    --------------------------------------------
      LOOP:  cpu time    9.7926: real time    9.8243

 eigenvalue-minimisations  : 22584
 total energy-change (2. order) : 0.4777463E+00  (-0.5408259E-01)
 number of electron     188.0000008 magnetization      19.4984491
 augmentation part      106.2958760 magnetization      15.6040431

 Broyden mixing:
  rms(total) = 0.29864E+00    rms(broyden)= 0.29856E+00
  rms(prec ) = 0.33987E+00
  weight for this iteration     100.00

 eigenvalues of (default mixing * dielectric matrix)
  average eigenvalue GAMMA=   1.6108
  5.0136  2.0635  1.1951  0.7378  0.3465  0.3081

 Free energy of the ion-electron system (eV)
  ---------------------------------------------------
  alpha Z        PSCENC =      1254.44113312
  Ewald energy   TEWEN  =    -22216.45061823
  -Hartree energ DENC   =     -8218.16944784
  -exchange      EXHF   =         0.00000000
  -V(xc)+E(xc)   XCENC  =       892.91228525
  PAW double counting   =     30490.89908381   -31945.38228735
  entropy T*S    EENTRO =         0.00111531
  eigenvalues    EBANDS =     -2244.02491373
  atomic energy  EATOM  =     31864.11063514
  Solvation  Ediel_sol  =         0.00000000
  ---------------------------------------------------
  free energy    TOTEN  =      -121.66301452 eV

  energy without entropy =     -121.66412983  energy(sigma->0) =     -121.66338629


--------------------------------------------------------------------------------------------------------




--------------------------------------- Iteration      1(  13)  ---------------------------------------


    POTLOK:  cpu time    0.0600: real time    0.0596
    SETDIJ:  cpu time    0.0640: real time    0.0664
     EDDAV:  cpu time    9.5646: real time    9.5949
       DOS:  cpu time    0.0080: real time    0.0079
    CHARGE:  cpu time    0.2720: real time    0.2738
    MIXING:  cpu time    0.0040: real time    0.0025
    --------------------------------------------
      LOOP:  cpu time    9.9726: real time   10.0052

 eigenvalue-minimisations  : 23256
 total energy-change (2. order) :-0.1321696E-01  (-0.1090242E-01)
 number of electron     188.0000008 magnetization      19.7903132
 augmentation part      106.4103361 magnetization      15.8730992

 Broyden mixing:
  rms(total) = 0.29734E+00    rms(broyden)= 0.29733E+00
  rms(prec ) = 0.43815E+00
  weight for this iteration     100.00

 eigenvalues of (default mixing * dielectric matrix)
  average eigenvalue GAMMA=   2.0015
  6.2298  4.1653  1.0853  1.0853  0.7929  0.3433  0.3086

 Free energy of the ion-electron system (eV)
  ---------------------------------------------------
  alpha Z        PSCENC =      1254.44113312
  Ewald energy   TEWEN  =    -22216.45061823
  -Hartree energ DENC   =     -8217.25420238
  -exchange      EXHF   =         0.00000000
  -V(xc)+E(xc)   XCENC  =       893.10952316
  PAW double counting   =     30268.23708438   -31721.77469435
  entropy T*S    EENTRO =         0.00042015
  eigenvalues    EBANDS =     -2246.09551245
  atomic energy  EATOM  =     31864.11063514
  Solvation  Ediel_sol  =         0.00000000
  ---------------------------------------------------
  free energy    TOTEN  =      -121.67623147 eV

  energy without entropy =     -121.67665162  energy(sigma->0) =     -121.67637152


--------------------------------------------------------------------------------------------------------




--------------------------------------- Iteration      1(  14)  ---------------------------------------


    POTLOK:  cpu time    0.0560: real time    0.0594
    SETDIJ:  cpu time    0.0680: real time    0.0679
     EDDAV:  cpu time    9.2166: real time    9.2470
       DOS:  cpu time    0.0080: real time    0.0076
    CHARGE:  cpu time    0.2760: real time    0.2772
    MIXING:  cpu time    0.0040: real time    0.0023
    --------------------------------------------
      LOOP:  cpu time    9.6286: real time    9.6614

 eigenvalue-minimisations  : 22136
 total energy-change (2. order) : 0.8481123E-02  (-0.9369287E-02)
 number of electron     188.0000008 magnetization      19.7632609
 augmentation part      106.2799307 magnetization      15.8873281

 Broyden mixing:
  rms(total) = 0.60519E-01    rms(broyden)= 0.60510E-01
  rms(prec ) = 0.83772E-01
  weight for this iteration     100.00

 eigenvalues of (default mixing * dielectric matrix)
  average eigenvalue GAMMA=   1.8941
  6.4859  4.0009  1.2650  1.1051  0.8221  0.8221  0.3433  0.3087

 Free energy of the ion-electron system (eV)
  ---------------------------------------------------
  alpha Z        PSCENC =      1254.44113312
  Ewald energy   TEWEN  =    -22216.45061823
  -Hartree energ DENC   =     -8219.01988139
  -exchange      EXHF   =         0.00000000
  -V(xc)+E(xc)   XCENC  =       893.57915288
  PAW double counting   =     30425.61683478   -31883.99406121
  entropy T*S    EENTRO =         0.00210608
  eigenvalues    EBANDS =     -2239.95305152
  atomic energy  EATOM  =     31864.11063514
  Solvation  Ediel_sol  =         0.00000000
  ---------------------------------------------------
  free energy    TOTEN  =      -121.66775035 eV

  energy without entropy =     -121.66985644  energy(sigma->0) =     -121.66845238


--------------------------------------------------------------------------------------------------------




--------------------------------------- Iteration      1(  15)  ---------------------------------------


    POTLOK:  cpu time    0.0560: real time    0.0589
    SETDIJ:  cpu time    0.0680: real time    0.0671
     EDDAV:  cpu time    9.1646: real time    9.1948
       DOS:  cpu time    0.0080: real time    0.0080
    CHARGE:  cpu time    0.2720: real time    0.2716
    MIXING:  cpu time    0.0040: real time    0.0026
    --------------------------------------------
      LOOP:  cpu time    9.5726: real time    9.6030

 eigenvalue-minimisations  : 21856
 total energy-change (2. order) : 0.3435108E-03  (-0.1179590E-02)
 number of electron     188.0000008 magnetization      19.7630307
 augmentation part      106.2851363 magnetization      15.8956893

 Broyden mixing:
  rms(total) = 0.42728E-01    rms(broyden)= 0.42727E-01
  rms(prec ) = 0.46978E-01
  weight for this iteration     100.00

 eigenvalues of (default mixing * dielectric matrix)
  average eigenvalue GAMMA=   1.9852
  6.6006  4.0817  2.5064  1.1808  1.0306  1.0306  0.7842  0.3434  0.3087

 Free energy of the ion-electron system (eV)
  ---------------------------------------------------
  alpha Z        PSCENC =      1254.44113312
  Ewald energy   TEWEN  =    -22216.45061823
  -Hartree energ DENC   =     -8217.42960277
  -exchange      EXHF   =         0.00000000
  -V(xc)+E(xc)   XCENC  =       893.49908735
  PAW double counting   =     30449.19587716   -31907.53148815
  entropy T*S    EENTRO =         0.00203324
  eigenvalues    EBANDS =     -2241.50446370
  atomic energy  EATOM  =     31864.11063514
  Solvation  Ediel_sol  =         0.00000000
  ---------------------------------------------------
  free energy    TOTEN  =      -121.66740684 eV

  energy without entropy =     -121.66944008  energy(sigma->0) =     -121.66808459


--------------------------------------------------------------------------------------------------------




--------------------------------------- Iteration      1(  16)  ---------------------------------------


    POTLOK:  cpu time    0.0560: real time    0.0590
    SETDIJ:  cpu time    0.0640: real time    0.0653
     EDDAV:  cpu time    9.2526: real time    9.2807
       DOS:  cpu time    0.0080: real time    0.0080
    CHARGE:  cpu time    0.2760: real time    0.2783
    MIXING:  cpu time    0.0040: real time    0.0028
    --------------------------------------------
      LOOP:  cpu time    9.6606: real time    9.6940

 eigenvalue-minimisations  : 22224
 total energy-change (2. order) : 0.1191471E-03  (-0.2447939E-03)
 number of electron     188.0000008 magnetization      19.7687423
 augmentation part      106.3110208 magnetization      15.9009750

 Broyden mixing:
  rms(total) = 0.26804E-01    rms(broyden)= 0.26803E-01
  rms(prec ) = 0.31533E-01
  weight for this iteration     100.00

 eigenvalues of (default mixing * dielectric matrix)
  average eigenvalue GAMMA=   2.1715
  7.2523  4.5906  4.1871  0.3087  0.3434  1.2572  1.0638  1.0638  0.8242  0.8242

 Free energy of the ion-electron system (eV)
  ---------------------------------------------------
  alpha Z        PSCENC =      1254.44113312
  Ewald energy   TEWEN  =    -22216.45061823
  -Hartree energ DENC   =     -8216.85395784
  -exchange      EXHF   =         0.00000000
  -V(xc)+E(xc)   XCENC  =       893.43016324
  PAW double counting   =     30416.24592334   -31873.63007755
  entropy T*S    EENTRO =         0.00213912
  eigenvalues    EBANDS =     -2242.96262803
  atomic energy  EATOM  =     31864.11063514
  Solvation  Ediel_sol  =         0.00000000
  ---------------------------------------------------
  free energy    TOTEN  =      -121.66728769 eV

  energy without entropy =     -121.66942681  energy(sigma->0) =     -121.66800073


--------------------------------------------------------------------------------------------------------




--------------------------------------- Iteration      1(  17)  ---------------------------------------


    POTLOK:  cpu time    0.0600: real time    0.0591
    SETDIJ:  cpu time    0.0640: real time    0.0655
     EDDAV:  cpu time   10.0526: real time   10.0873
       DOS:  cpu time    0.0080: real time    0.0078
    CHARGE:  cpu time    0.2720: real time    0.2714
    MIXING:  cpu time    0.0000: real time    0.0017
    --------------------------------------------
      LOOP:  cpu time   10.4567: real time   10.4928

 eigenvalue-minimisations  : 24840
 total energy-change (2. order) :-0.3242155E-03  (-0.5489110E-04)
 number of electron     188.0000008 magnetization      19.7581163
 augmentation part      106.3009893 magnetization      15.8916188

 Broyden mixing:
  rms(total) = 0.22394E-01    rms(broyden)= 0.22393E-01
  rms(prec ) = 0.36471E-01
  weight for this iteration     100.00

 eigenvalues of (default mixing * dielectric matrix)
  average eigenvalue GAMMA=   2.2415
  7.2150  4.3064  4.3064  3.1643  0.3087  0.3434  1.2364  0.7914  0.9927  0.9927
  0.9996

 Free energy of the ion-electron system (eV)
  ---------------------------------------------------
  alpha Z        PSCENC =      1254.44113312
  Ewald energy   TEWEN  =    -22216.45061823
  -Hartree energ DENC   =     -8217.61804617
  -exchange      EXHF   =         0.00000000
  -V(xc)+E(xc)   XCENC  =       893.43622699
  PAW double counting   =     30392.11089086   -31849.04867985
  entropy T*S    EENTRO =         0.00222278
  eigenvalues    EBANDS =     -2242.65137655
  atomic energy  EATOM  =     31864.11063514
  Solvation  Ediel_sol  =         0.00000000
  ---------------------------------------------------
  free energy    TOTEN  =      -121.66761191 eV

  energy without entropy =     -121.66983468  energy(sigma->0) =     -121.66835283


--------------------------------------------------------------------------------------------------------




--------------------------------------- Iteration      1(  18)  ---------------------------------------


    POTLOK:  cpu time    0.0600: real time    0.0591
    SETDIJ:  cpu time    0.0680: real time    0.0681
     EDDAV:  cpu time    9.4206: real time    9.4533
       DOS:  cpu time    0.0080: real time    0.0078
    CHARGE:  cpu time    0.2760: real time    0.2755
    MIXING:  cpu time    0.0040: real time    0.0027
    --------------------------------------------
      LOOP:  cpu time    9.8366: real time    9.8665

 eigenvalue-minimisations  : 22840
 total energy-change (2. order) : 0.8839987E-04  (-0.2402240E-04)
 number of electron     188.0000008 magnetization      19.7525918
 augmentation part      106.2983721 magnetization      15.8841204

 Broyden mixing:
  rms(total) = 0.12228E-01    rms(broyden)= 0.12228E-01
  rms(prec ) = 0.19758E-01
  weight for this iteration     100.00

 eigenvalues of (default mixing * dielectric matrix)
  average eigenvalue GAMMA=   2.3051
  7.5284  6.2489  3.8472  3.4302  0.3087  0.3434  1.2368  1.0147  1.0147  1.0147
  0.7940  0.8789

 Free energy of the ion-electron system (eV)
  ---------------------------------------------------
  alpha Z        PSCENC =      1254.44113312
  Ewald energy   TEWEN  =    -22216.45061823
  -Hartree energ DENC   =     -8217.86772962
  -exchange      EXHF   =         0.00000000
  -V(xc)+E(xc)   XCENC  =       893.45198313
  PAW double counting   =     30384.21543462   -31841.18606917
  entropy T*S    EENTRO =         0.00220474
  eigenvalues    EBANDS =     -2242.38449723
  atomic energy  EATOM  =     31864.11063514
  Solvation  Ediel_sol  =         0.00000000
  ---------------------------------------------------
  free energy    TOTEN  =      -121.66752351 eV

  energy without entropy =     -121.66972825  energy(sigma->0) =     -121.66825842


--------------------------------------------------------------------------------------------------------




--------------------------------------- Iteration      1(  19)  ---------------------------------------


    POTLOK:  cpu time    0.0560: real time    0.0589
    SETDIJ:  cpu time    0.0680: real time    0.0668
     EDDAV:  cpu time    9.9686: real time   10.0009
       DOS:  cpu time    0.0080: real time    0.0078
    CHARGE:  cpu time    0.2760: real time    0.2766
    MIXING:  cpu time    0.0000: real time    0.0027
    --------------------------------------------
      LOOP:  cpu time   10.3766: real time   10.4138

 eigenvalue-minimisations  : 24592
 total energy-change (2. order) : 0.3955175E-04  (-0.8339844E-05)
 number of electron     188.0000008 magnetization      19.7498810
 augmentation part      106.3028152 magnetization      15.8804203

 Broyden mixing:
  rms(total) = 0.39110E-02    rms(broyden)= 0.39098E-02
  rms(prec ) = 0.48001E-02
  weight for this iteration     100.00

 eigenvalues of (default mixing * dielectric matrix)
  average eigenvalue GAMMA=   2.3563
[...]
  0.000   0.000   0.013   0.000   0.000   0.000  -0.000   0.000  -0.006   0.000  -0.000   0.000  -1.295   0.000  -0.000   0.000
  0.000   0.000   0.000   0.000   0.013   0.000  -0.000   0.000  -0.000   0.000  -0.006   0.000  -0.000   0.000  -1.295   0.000
  0.000   0.000  -0.000   0.000   0.000   0.000   0.000   0.000   0.000   0.000  -0.000   0.000  -0.000   0.000   0.000   0.000
  0.013   0.000   0.000   0.000   0.000   0.000  -0.006   0.000  -0.000   0.000  -0.000   0.000  -0.000   0.000  -0.000   0.000
  0.000   0.000   0.000   0.000  -0.000   0.000   0.000   0.000  -0.000   0.000   0.000   0.000  -0.000   0.000  -0.000   0.000
 -0.000   0.000  -0.000   0.000  -0.000   0.000  -0.000   0.000  -0.000   0.000  -0.000   0.000  -0.000   0.000  -0.000   0.000
 -0.000   0.000  -0.000   0.000  -0.000   0.000  -0.000   0.000  -0.000   0.000  -0.000   0.000  -0.000   0.000  -0.000   0.000
 pseudopotential strength for first ion, spin component:           2
-42.209   0.000   0.000   0.000   0.000   0.000   6.439   0.000  -0.000   0.000  -0.000   0.000   0.000   0.000   0.000   0.000
  0.000   0.000 -42.209   0.000   0.000   0.000  -0.000   0.000   6.439   0.000  -0.000   0.000  -0.008   0.000   0.000   0.000
  0.000   0.000   0.000   0.000 -42.209   0.000  -0.000   0.000  -0.000   0.000   6.439   0.000   0.000   0.000  -0.008   0.000
  6.439   0.000  -0.000   0.000  -0.000   0.000   5.931   0.000  -0.000   0.000  -0.000   0.000  -0.000   0.000  -0.000   0.000
 -0.000   0.000   6.439   0.000  -0.000   0.000  -0.000   0.000   5.931   0.000  -0.000   0.000   0.005   0.000  -0.000   0.000
 -0.000   0.000  -0.000   0.000   6.439   0.000  -0.000   0.000  -0.000   0.000   5.931   0.000  -0.000   0.000   0.005   0.000
  0.000   0.000  -0.008   0.000   0.000   0.000  -0.000   0.000   0.005   0.000  -0.000   0.000   0.088   0.000  -0.000   0.000
  0.000   0.000   0.000   0.000  -0.008   0.000  -0.000   0.000  -0.000   0.000   0.005   0.000  -0.000   0.000   0.088   0.000
  0.000   0.000  -0.000   0.000   0.000   0.000   0.000   0.000   0.000   0.000   0.000   0.000  -0.000   0.000   0.000   0.000
 -0.008   0.000   0.000   0.000   0.000   0.000   0.005   0.000  -0.000   0.000  -0.000   0.000  -0.000   0.000  -0.000   0.000
  0.000   0.000   0.000   0.000  -0.000   0.000   0.000   0.000  -0.000   0.000  -0.000   0.000  -0.000   0.000  -0.000   0.000
  0.000   0.000  -0.008   0.000   0.000   0.000  -0.000   0.000   0.004   0.000  -0.000   0.000  -0.462   0.000  -0.000   0.000
  0.000   0.000   0.000   0.000  -0.008   0.000  -0.000   0.000  -0.000   0.000   0.004   0.000  -0.000   0.000  -0.462   0.000
  0.000   0.000  -0.000   0.000   0.000   0.000   0.000   0.000   0.000   0.000   0.000   0.000  -0.000   0.000   0.000   0.000
 -0.008   0.000   0.000   0.000   0.000   0.000   0.004   0.000  -0.000   0.000  -0.000   0.000  -0.000   0.000  -0.000   0.000
  0.000   0.000   0.000   0.000  -0.000   0.000   0.000   0.000  -0.000   0.000  -0.000   0.000  -0.000   0.000  -0.000   0.000
 -0.000   0.000  -0.000   0.000  -0.000   0.000  -0.000   0.000  -0.000   0.000  -0.000   0.000  -0.000   0.000  -0.000   0.000
 -0.000   0.000  -0.000   0.000  -0.000   0.000  -0.000   0.000  -0.000   0.000  -0.000   0.000  -0.000   0.000  -0.000   0.000
 total augmentation occupancy for first ion, spin component:           1
  1.993  -0.000   0.000  -0.020   0.000   0.000   0.000   0.000   0.000  -0.001  -0.000  -0.000   0.000  -0.000   0.001   0.000
 -0.000   1.993   0.000   0.000  -0.020   0.000  -0.001  -0.000   0.000   0.000  -0.000   0.001   0.000   0.000   0.000   0.000
  0.000   0.000   1.993   0.000   0.000  -0.020  -0.000  -0.001   0.000   0.000  -0.000   0.000   0.001   0.000   0.000  -0.000
 -0.020   0.000   0.000   0.206   0.000   0.000   0.000   0.000   0.000  -0.053  -0.000  -0.000   0.000   0.000   0.036  -0.000
  0.000  -0.020   0.000   0.000   0.206   0.000  -0.053  -0.000   0.000   0.000   0.000   0.036   0.000   0.000   0.000   0.000
  0.000   0.000  -0.020  -0.000   0.000   0.206   0.000  -0.053   0.000   0.000  -0.000   0.000   0.036  -0.000   0.000   0.000
  0.000  -0.001  -0.000  -0.000  -0.053  -0.000   2.003  -0.000   0.000  -0.000  -0.000  -1.346   0.000  -0.000  -0.000   0.000
  0.000  -0.000  -0.001   0.000  -0.000  -0.053   0.000   2.003   0.000  -0.000   0.000  -0.000  -1.346   0.000   0.000  -0.000
 -0.000   0.000   0.000   0.000  -0.000  -0.000   0.000  -0.000   2.379   0.000  -0.000  -0.000   0.000  -1.675  -0.000  -0.000
 -0.001   0.000   0.000  -0.053  -0.000   0.000  -0.000  -0.000   0.000   2.003  -0.000   0.000   0.000  -0.000  -1.346   0.000
  0.000  -0.000   0.000   0.000   0.000   0.000  -0.000  -0.000  -0.000   0.000   2.380   0.000   0.000   0.000   0.000  -1.676
 -0.000   0.001   0.000   0.000   0.036   0.000  -1.346   0.000   0.000  -0.000  -0.000   2.154   0.000   0.000   0.000   0.000
  0.000   0.000   0.001   0.000  -0.000   0.036   0.000  -1.346  -0.000   0.000   0.000   0.000   2.153  -0.000   0.000   0.000
 -0.000   0.000   0.000   0.000   0.000  -0.000   0.000   0.000  -1.675   0.000   0.000  -0.000  -0.000   2.165  -0.000   0.000
  0.001   0.000   0.000   0.036   0.000   0.000  -0.000   0.000  -0.000  -1.346  -0.000  -0.000   0.000  -0.000   2.153  -0.000
  0.000   0.000  -0.000  -0.000   0.000  -0.000  -0.000   0.000  -0.000   0.000  -1.676  -0.000  -0.000   0.000   0.000   2.165
  0.000  -0.000   0.000   0.000  -0.000   0.000   0.000  -0.000  -0.000   0.000   0.000   0.000  -0.000   0.000   0.000   0.000
  0.000   0.000   0.000   0.000  -0.000   0.000   0.000   0.000  -0.000  -0.000  -0.000  -0.000   0.000   0.000   0.000   0.000
 total augmentation occupancy for first ion, spin component:           2
 -0.001   0.000   0.000  -0.005  -0.000   0.000  -0.000   0.000   0.000  -0.008   0.000   0.000   0.000   0.000   0.009  -0.000
  0.000  -0.001   0.000  -0.000  -0.005   0.000  -0.008  -0.000   0.000   0.000  -0.000   0.009   0.000   0.000  -0.000  -0.000
  0.000   0.000  -0.001   0.000   0.000  -0.005   0.000  -0.008   0.000   0.000   0.000  -0.000   0.009   0.000   0.000   0.000
 -0.005  -0.000   0.000  -0.005   0.000   0.000  -0.000   0.000  -0.000   0.058   0.000  -0.000  -0.000  -0.000  -0.018  -0.000
 -0.000  -0.005   0.000   0.000  -0.005  -0.000   0.058  -0.000   0.000  -0.000  -0.000  -0.018  -0.000  -0.000  -0.000  -0.000
  0.000   0.000  -0.005   0.000   0.000  -0.005   0.000   0.058  -0.000  -0.000   0.000  -0.000  -0.018  -0.000  -0.000  -0.000
  0.000  -0.008   0.000   0.000   0.058   0.000   0.746  -0.000   0.000   0.000   0.000  -0.200  -0.000   0.000   0.000   0.000
  0.000  -0.000  -0.008   0.000   0.000   0.058   0.000   0.746   0.000  -0.000   0.000   0.000  -0.200  -0.000  -0.000  -0.000
  0.000   0.000  -0.000  -0.000   0.000   0.000   0.000   0.000   1.583   0.000  -0.000  -0.000   0.000  -0.473  -0.000   0.000
 -0.008   0.000   0.000   0.058  -0.000  -0.000   0.000  -0.000   0.000   0.746   0.000  -0.000   0.000  -0.000  -0.200  -0.000
  0.000  -0.000   0.000   0.000  -0.000  -0.000   0.000   0.000  -0.000   0.000   1.584   0.000   0.000  -0.000   0.000  -0.474
  0.000   0.009  -0.000   0.000  -0.018   0.000  -0.200   0.000  -0.000  -0.000   0.000  -0.152  -0.000   0.000   0.000   0.000
  0.000   0.000   0.009  -0.000   0.000  -0.018  -0.000  -0.200   0.000  -0.000  -0.000   0.000  -0.152   0.000   0.000  -0.000
  0.000   0.000   0.000  -0.000  -0.000  -0.000   0.000   0.000  -0.473   0.000  -0.000  -0.000   0.000  -0.097  -0.000   0.000
  0.009  -0.000   0.000  -0.018  -0.000   0.000   0.000  -0.000   0.000  -0.200  -0.000   0.000   0.000   0.000  -0.152  -0.000
 -0.000  -0.000   0.000  -0.000   0.000  -0.000  -0.000   0.000   0.000   0.000  -0.474   0.000  -0.000  -0.000   0.000  -0.097
  0.000  -0.000  -0.000   0.000  -0.000   0.000  -0.000   0.000  -0.000   0.000   0.000  -0.000   0.000   0.000   0.000   0.000
  0.000  -0.000   0.000   0.000  -0.000   0.000   0.000  -0.000  -0.000   0.000   0.000  -0.000   0.000   0.000  -0.000  -0.000


------------------------ aborting loop because EDIFF is reached ----------------------------------------


 


 total charge     
 
# of ion       s       p       d       tot
------------------------------------------
    1        0.346   6.390   6.296  13.032
    2        0.346   6.390   6.296  13.032
    3        0.346   6.390   6.296  13.032
    4        0.346   6.390   6.296  13.032
    5        0.379   6.399   6.072  12.850
    6        0.379   6.399   6.072  12.850
    7        0.379   6.399   6.072  12.850
    8        0.379   6.399   6.072  12.850
    9        0.446   6.540   7.453  14.439
   10        0.446   6.540   7.453  14.439
   11        0.446   6.540   7.453  14.439
   12        0.446   6.540   7.453  14.439
   13        0.707   0.887   0.000   1.594
   14        0.707   0.887   0.000   1.594
   15        0.707   0.887   0.000   1.594
   16        0.707   0.887   0.000   1.594
--------------------------------------------------
tot          7.514  80.864  79.281 167.659
 


 magnetization (x)
 
# of ion       s       p       d       tot
------------------------------------------
    1        0.002  -0.012   1.378   1.368
    2        0.002  -0.012   1.378   1.368
    3        0.002  -0.012   1.378   1.368
    4        0.002  -0.012   1.378   1.368
    5        0.004  -0.004   2.674   2.674
    6        0.004  -0.004   2.674   2.674
    7        0.004  -0.004   2.674   2.674
    8        0.004  -0.004   2.674   2.674
    9       -0.011  -0.032   1.051   1.007
   10       -0.011  -0.032   1.051   1.007
   11       -0.011  -0.032   1.051   1.007
   12       -0.011  -0.032   1.051   1.007
   13        0.004  -0.029   0.000  -0.025
   14        0.004  -0.029   0.000  -0.025
   15        0.004  -0.029   0.000  -0.025
   16        0.004  -0.029   0.000  -0.025
--------------------------------------------------
tot         -0.000  -0.310  20.410  20.101
 
    CHARGE:  cpu time    0.4520: real time    0.4520
    FORLOC:  cpu time    0.0040: real time    0.0032
    FORNL :  cpu time    1.3201: real time    1.3248
    STRESS:  cpu time    4.0283: real time    4.0424
    FORCOR:  cpu time    0.0520: real time    0.0534
    FORHAR:  cpu time    0.0080: real time    0.0083
    MIXING:  cpu time    0.0040: real time    0.0015
    OFIELD:  cpu time    0.0000: real time    0.0000

  FORCE on cell =-STRESS in cart. coord.  units (eV):
  Direction    XX          YY          ZZ          XY          YZ          ZX
  --------------------------------------------------------------------------------------
  Alpha Z  1254.44113  1254.44113  1254.44113
  Ewald   -7405.57822 -7405.57822 -7405.35798    -0.00000     0.00000     0.00000
  Hartree  2739.17072  2739.17072  2739.34496    -0.00000    -0.00000    -0.00000
  E(xc)   -1169.95025 -1169.95025 -1169.95010    -0.00000    -0.00000    -0.00000
  Local    1331.42267  1331.42267  1331.01117     0.00000     0.00000     0.00000
  n-local  -218.71293  -217.33557  -218.02026    -0.82464    -1.28949    -0.37346
  augment  1694.44373  1694.44373  1694.45482     0.00000     0.00000     0.00000
  Kinetic  1768.75324  1779.39441  1774.09208    -1.14805    -1.52651    -0.76850
  Fock        0.00000     0.00000     0.00000     0.00000     0.00000     0.00000
  -------------------------------------------------------------------------------------
  Total      -0.00065    -0.00065     0.01584     0.00000     0.00000     0.00000
  in kB      -0.00592    -0.00592     0.14455     0.00000     0.00000     0.00000
  external pressure =        0.04 kB  Pullay stress =        0.00 kB


 VOLUME and BASIS-vectors are now :
 -----------------------------------------------------------------------------
  energy-cutoff  :      500.00
  volume of cell :      175.52
      direct lattice vectors                 reciprocal lattice vectors
     5.599303571  0.000000000  0.000000000     0.178593639  0.000000000  0.000000000
     0.000000000  5.599303571  0.000000000     0.000000000  0.178593639  0.000000000
     0.000000000  0.000000000  5.598467809     0.000000000  0.000000000  0.178620300

  length of vectors
     5.599303571  5.599303571  5.598467809     0.178593639  0.178593639  0.178620300


 FORCES acting on ions
    electron-ion (+dipol)            ewald-force                    non-local-force                 convergence-correction
 -----------------------------------------------------------------------------------------------
   0.360E-10 0.342E-10 0.364E-10   -.426E-13 -.568E-13 0.142E-13   0.520E-17 0.000E+00 0.520E-17   -.488E-12 0.288E-12 -.486E-12
   0.342E-10 0.360E-10 0.361E-10   0.711E-14 -.568E-13 0.142E-13   0.173E-17 -.347E-17 -.867E-18   0.561E-12 0.207E-12 -.484E-12
   0.360E-10 0.364E-10 0.342E-10   -.426E-13 -.568E-13 0.000E+00   0.520E-17 -.347E-17 -.867E-18   -.435E-12 0.233E-12 0.387E-12
   0.342E-10 0.342E-10 0.342E-10   0.711E-14 -.568E-13 0.000E+00   0.173E-17 0.000E+00 0.000E+00   0.578E-12 0.277E-12 0.366E-12
   -.389E-10 -.388E-10 -.373E-10   0.228E-13 0.324E-13 -.104E-14   0.217E-17 0.347E-17 -.434E-18   0.172E-14 -.263E-12 -.112E-12
   -.389E-10 -.373E-10 -.388E-10   0.228E-13 0.346E-13 -.316E-13   0.390E-17 -.867E-18 0.434E-18   0.476E-13 -.202E-12 0.155E-12
   -.374E-10 -.322E-10 -.322E-10   0.250E-13 0.324E-13 -.316E-13   0.217E-17 0.347E-17 0.434E-18   -.382E-13 -.305E-12 0.152E-12
   -.374E-10 -.277E-10 -.277E-10   0.250E-13 0.346E-13 -.104E-14   0.304E-17 -.867E-18 -.434E-18   -.241E-13 -.209E-12 -.106E-12
   0.864E-10 0.842E-10 0.843E-10   0.568E-13 0.142E-13 0.426E-13   -.156E-16 0.434E-17 0.347E-17   -.377E-12 -.115E-12 0.646E-12
   0.842E-10 0.862E-10 0.843E-10   0.000E+00 0.426E-13 0.426E-13   0.000E+00 0.434E-17 0.173E-17   0.608E-12 -.173E-12 0.631E-12
   0.843E-10 0.843E-10 0.863E-10   0.142E-13 -.142E-13 0.426E-13   -.173E-17 -.260E-17 0.347E-17   0.664E-12 -.970E-13 -.269E-12
   0.863E-10 0.855E-10 0.855E-10   0.426E-13 0.426E-13 0.426E-13   -.139E-16 0.434E-17 0.173E-17   -.335E-12 -.136E-12 -.269E-12
   -.619E-10 -.619E-10 -.619E-10   -.427E-13 0.144E-13 -.327E-15   0.173E-17 0.347E-17 0.000E+00   -.169E-13 0.917E-14 0.182E-13
   -.620E-10 -.575E-10 -.628E-10   -.423E-13 0.143E-13 -.139E-13   0.867E-18 0.173E-17 0.000E+00   -.197E-13 0.138E-13 -.244E-13
   -.619E-10 -.615E-10 -.616E-10   -.430E-13 0.140E-13 -.139E-13   0.867E-18 0.347E-17 -.867E-18   -.157E-13 0.358E-13 -.261E-13
   -.620E-10 -.628E-10 -.576E-10   -.426E-13 0.140E-13 -.268E-15   0.867E-18 0.260E-17 0.867E-18   -.237E-13 0.358E-13 0.178E-13
 -----------------------------------------------------------------------------------------------
   0.812E-10 0.101E-09 0.102E-09   -.323E-13 0.486E-13 0.105E-12   -.173E-17 0.199E-16 0.139E-16   0.687E-12 -.401E-12 0.596E-12
 
 
 POSITION                                       TOTAL-FORCE (eV/Angst)
 -----------------------------------------------------------------------------------
      2.79965      0.00000      2.79923        -0.000000     -0.000000     -0.000000
      0.00000      2.79965      2.79923        -0.000000     -0.000000      0.000000
      2.79965      2.79965      0.00000         0.000000     -0.000000      0.000000
      0.00000      0.00000      0.00000        -0.000000     -0.000000     -0.000000
      1.39983      1.39983      4.19885        -0.000000      0.000000      0.000000
      1.39983      4.19948      1.39962        -0.000000     -0.000000      0.000000
      4.19948      1.39983      1.39962         0.000000     -0.000000      0.000000
      4.19948      4.19948      4.19885         0.000000     -0.000000     -0.000000
      2.79965      0.00000      0.00000         0.000000      0.000000     -0.000000
      0.00000      2.79965      0.00000        -0.000000      0.000000      0.000000
      0.00000      0.00000      2.79923         0.000000     -0.000000     -0.000000
      2.79965      2.79965      2.79923         0.000000     -0.000000      0.000000
      1.39983      1.39983      1.39962         0.000000      0.000000      0.000000
      4.19948      1.39983      4.19885        -0.000000     -0.000000     -0.000000
      1.39983      4.19948      4.19885         0.000000      0.000000      0.000000
      4.19948      4.19948      1.39962        -0.000000      0.000000      0.000000
 -----------------------------------------------------------------------------------
    total drift:                                0.000000      0.000000      0.000000


--------------------------------------------------------------------------------------------------------



  FREE ENERGIE OF THE ION-ELECTRON SYSTEM (eV)
  ---------------------------------------------------
  free  energy   TOTEN  =      -121.66749595 eV

  energy  without entropy=     -121.66969181  energy(sigma->0) =     -121.66822791
 


--------------------------------------------------------------------------------------------------------


    POTLOK:  cpu time    0.1280: real time    0.1294


--------------------------------------------------------------------------------------------------------


     LOOP+:  cpu time  209.9411: real time  211.6359
    4ORBIT:  cpu time    0.0000: real time    0.0000
 


 total charge     
 
# of ion       s       p       d       tot
------------------------------------------
    1        0.346   6.390   6.296  13.032
    2        0.346   6.390   6.296  13.032
    3        0.346   6.390   6.296  13.032
    4        0.346   6.390   6.296  13.032
    5        0.379   6.399   6.072  12.850
    6        0.379   6.399   6.072  12.850
    7        0.379   6.399   6.072  12.850
    8        0.379   6.399   6.072  12.850
    9        0.446   6.540   7.453  14.439
   10        0.446   6.540   7.453  14.439
   11        0.446   6.540   7.453  14.439
   12        0.446   6.540   7.453  14.439
   13        0.707   0.887   0.000   1.594
   14        0.707   0.887   0.000   1.594
   15        0.707   0.887   0.000   1.594
   16        0.707   0.887   0.000   1.594
--------------------------------------------------
tot          7.514  80.864  79.281 167.659
 


 magnetization (x)
 
# of ion       s       p       d       tot
------------------------------------------
    1        0.002  -0.012   1.378   1.368
    2        0.002  -0.012   1.378   1.368
    3        0.002  -0.012   1.378   1.368
    4        0.002  -0.012   1.378   1.368
    5        0.004  -0.004   2.674   2.674
    6        0.004  -0.004   2.674   2.674
    7        0.004  -0.004   2.674   2.674
    8        0.004  -0.004   2.674   2.674
    9       -0.011  -0.032   1.051   1.007
   10       -0.011  -0.032   1.051   1.007
   11       -0.011  -0.032   1.051   1.007
   12       -0.011  -0.032   1.051   1.007
   13        0.004  -0.029   0.000  -0.025
   14        0.004  -0.029   0.000  -0.025
   15        0.004  -0.029   0.000  -0.025
   16        0.004  -0.029   0.000  -0.025
--------------------------------------------------
tot         -0.000  -0.310  20.410  20.101
 

 total amount of memory used by VASP MPI-rank0    49182. kBytes
=======================================================================

   base      :      30000. kBytes
   nonlr-proj:       2886. kBytes
   fftplans  :       3254. kBytes
   grid      :       2822. kBytes
   one-center:         62. kBytes
   wavefun   :      10158. kBytes
 
  
  
 General timing and accounting informations for this job:
 ========================================================
  
                  Total CPU time used (sec):      221.250
                            User time (sec):      219.830
                          System time (sec):        1.420
                         Elapsed time (sec):      224.438
  
                   Maximum memory used (kb):     1071356.
                   Average memory used (kb):           0.
  
                          Minor page faults:       268840
                          Major page faults:            5
                 Voluntary context switches:         4398
