 vasp.6.2.0 18Jan21 (build Feb 24 2021 14:57:03) complex                        
  
 executed on             LinuxIFC date 2023.06.13  12:11:46
 running on   24 total cores
 distrk:  each k-point on   24 cores,    1 groups
 distr:  one band on NCORE=   6 cores,    4 groups


--------------------------------------------------------------------------------------------------------


 INCAR:
   SYSTEM = NiCoMnGa
   LCHARG = .TRUE.
   LWAVE = .FALSE.
   ICHARG = 2
   IBRION = 2
   ISIF = 3
   PREC = Accurate
   ENCUT = 500
   LREAL = A
   POTIM = 0.002
   EDIFF = 1e-6
   ISMEAR = 1
   SIGMA = 0.1
   ISPIN = 2
   LORBIT = 10
   ISYM = 2
   MAGMOM = 8*2.3 4*1.2 4*0
   NSW = 0
   NEDOS = 1500
   GGA_COMPAT = .TRUE.
   LMAXMIX = 6
   NELMDL = -6
   NELM = 160
   ADDGRID = .TRUE.
   NPAR = 4
   NCORE = 6
   AMIX = 0.18
   AMIX_MAG = 0.26
   BMIX = 0.0025
   BMIX_MAG = 0.005
   EDIFFG = -1E-3

 POTCAR:    PAW_PBE Fe_pv 02Aug2007               
 POTCAR:    PAW_PBE Co_pv 23Apr2009               
 POTCAR:  PAW_PBE Al 04Jan2001                    
 POTCAR:    PAW_PBE Fe_pv 02Aug2007               
   VRHFIN =Fe:  3pd7s1                                                                              
   LEXCH  = PE                                                                                      
   EATOM  =  2457.4239 eV,  180.6156 Ry                                                             
                                                                                                    
   TITEL  = PAW_PBE Fe_pv 02Aug2007                                                                 
   LULTRA =        F    use ultrasoft PP ?                                                          
   IUNSCR =        1    unscreen: 0-lin 1-nonlin 2-no                                               
   RPACOR =    1.750    partial core radius                                                         
   POMASS =   55.847; ZVAL   =   14.000    mass and valenz                                          
   RCORE  =    2.200    outmost cutoff radius                                                       
   RWIGS  =    2.200; RWIGS  =    1.164    wigner-seitz radius (au A)                               
   ENMAX  =  293.238; ENMIN  =  219.928 eV                                                          
   ICORE  =        3    local potential                                                             
   LCOR   =        T    correct aug charges                                                         
   LPAW   =        T    paw PP                                                                      
   EAUG   =  578.342                                                                                
   DEXC   =    0.000                                                                                
   RMAX   =    2.249    core radius for proj-oper                                                   
   RAUG   =    1.300    factor for augmentation sphere                                              
   RDEP   =    2.296    radius for radial grids                                                     
   RDEPT  =    1.766    core radius for aug-charge                                                  
                                                                                                    
   Atomic configuration                                                                             
    8 entries                                                                                       
     n  l   j            E        occ.                                                              
     1  0  0.50     -6993.8440   2.0000                                                             
     2  0  0.50      -814.6047   2.0000                                                             
     2  1  1.50      -693.3689   6.0000                                                             
     3  0  0.50       -89.4732   2.0000                                                             
     3  1  1.50       -55.6373   6.0000                                                             
     3  2  2.50        -3.8151   7.0000                                                             
     4  0  0.50        -4.2551   1.0000                                                             
     4  3  2.50        -1.3606   0.0000                                                             
   Description                                                                                      
     l       E           TYP  RCUT    TYP  RCUT                                                     
     1    -55.6372668     23  2.000                                                                 
     1     -5.4423304     23  2.000                                                                 
     2     -3.8151096     23  2.200                                                                 
     2     -5.1756922     23  2.200                                                                 
     0     -4.2550951     23  2.200                                                                 
     0     27.2116520     23  2.200                                                                 
     3     -1.3605826     23  2.200                                                                 
  local pseudopotential read in
  partial core-charges read in
  partial kinetic energy density read in
  atomic valenz-charges read in
  non local Contribution for L=           1  read in
    real space projection operators read in
  non local Contribution for L=           1  read in
    real space projection operators read in
  non local Contribution for L=           2  read in
    real space projection operators read in
  non local Contribution for L=           2  read in
    real space projection operators read in
  non local Contribution for L=           0  read in
    real space projection operators read in
  non local Contribution for L=           0  read in
    real space projection operators read in
    PAW grid and wavefunctions read in
 
   number of l-projection  operators is LMAX  =           6
   number of lm-projection operators is LMMAX =          18
 
 POTCAR:    PAW_PBE Co_pv 23Apr2009               
   VRHFIN =Co: 3pd7s1                                                                               
   LEXCH  = PE                                                                                      
   EATOM  =  2948.1334 eV,  216.6817 Ry                                                             
                                                                                                    
   TITEL  = PAW_PBE Co_pv 23Apr2009                                                                 
   LULTRA =        F    use ultrasoft PP ?                                                          
   IUNSCR =        1    unscreen: 0-lin 1-nonlin 2-no                                               
   RPACOR =    2.000    partial core radius                                                         
   POMASS =   58.933; ZVAL   =   15.000    mass and valenz                                          
   RCORE  =    2.300    outmost cutoff radius                                                       
   RWIGS  =    2.460; RWIGS  =    1.302    wigner-seitz radius (au A)                               
   ENMAX  =  271.042; ENMIN  =  203.281 eV                                                          
   ICORE  =        3    local potential                                                             
   LCOR   =        T    correct aug charges                                                         
   LPAW   =        T    paw PP                                                                      
   EAUG   =  543.066                                                                                
   DEXC   =    0.000                                                                                
   RMAX   =    2.360    core radius for proj-oper                                                   
   RAUG   =    1.300    factor for augmentation sphere                                              
   RDEP   =    2.393    radius for radial grids                                                     
   RDEPT  =    1.841    core radius for aug-charge                                                  
                                                                                                    
   Atomic configuration                                                                             
    8 entries                                                                                       
     n  l   j            E        occ.                                                              
     1  0  0.50     -7587.6674   2.0000                                                             
     2  0  0.50      -893.6084   2.0000                                                             
     2  1  1.50      -764.5805   6.0000                                                             
     3  0  0.50       -97.5973   2.0000                                                             
     3  1  1.50       -60.9648   6.0000                                                             
     3  2  2.50        -4.2382   8.0000                                                             
     4  0  0.50        -4.3746   1.0000                                                             
     4  3  2.50        -1.3606   0.0000                                                             
   Description                                                                                      
     l       E           TYP  RCUT    TYP  RCUT                                                     
     1    -60.9647990     23  2.000                                                                 
     1     -5.4423304     23  2.000                                                                 
     2     -4.2382362     23  2.300                                                                 
     2     -5.5988188     23  2.300                                                                 
     0     -4.3745797     23  2.300                                                                 
     0      5.7660125     23  2.300                                                                 
     3     -1.3605826     23  2.300                                                                 
  local pseudopotential read in
  partial core-charges read in
  partial kinetic energy density read in
  atomic valenz-charges read in
  non local Contribution for L=           1  read in
    real space projection operators read in
  non local Contribution for L=           1  read in
    real space projection operators read in
  non local Contribution for L=           2  read in
    real space projection operators read in
  non local Contribution for L=           2  read in
    real space projection operators read in
  non local Contribution for L=           0  read in
    real space projection operators read in
  non local Contribution for L=           0  read in
    real space projection operators read in
    PAW grid and wavefunctions read in
 
   number of l-projection  operators is LMAX  =           6
   number of lm-projection operators is LMMAX =          18
 
 POTCAR:  PAW_PBE Al 04Jan2001                    
   VRHFIN =Al: s2p1                                                                                 
   LEXCH  = PE                                                                                      
   EATOM  =    53.5387 eV,    3.9350 Ry                                                             
                                                                                                    
   TITEL  = PAW_PBE Al 04Jan2001                                                                    
   LULTRA =        F    use ultrasoft PP ?                                                          
   IUNSCR =        1    unscreen: 0-lin 1-nonlin 2-no                                               
   RPACOR =    1.500    partial core radiusA                                                        
   POMASS =   26.981; ZVAL   =    3.000    mass and valenz                                          
   RCORE  =    1.900    outmost cutoff radius                                                       
   RWIGS  =    2.650; RWIGS  =    1.402    wigner-seitz radius (au A)                               
   ENMAX  =  240.300; ENMIN  =  180.225 eV                                                          
   ICORE  =        2    local potential                                                             
   LCOR   =        T    correct aug charges                                                         
   LPAW   =        T    paw PP                                                                      
   EAUG   =  291.052                                                                                
   DEXC   =    0.000                                                                                
   RMAX   =    1.939    core radius for proj-oper                                                   
   RAUG   =    1.300    factor for augmentation sphere                                              
   RDEP   =    1.966    radius for radial grids                                                     
   RDEPT  =    1.856    core radius for aug-charge                                                  
                                                                                                    
   Atomic configuration                                                                             
    6 entries                                                                                       
     n  l   j            E        occ.                                                              
     1  0  0.50     -1511.1048   2.0000                                                             
     2  0  0.50      -108.1629   2.0000                                                             
     2  1  1.50       -69.6402   6.0000                                                             
     3  0  0.50        -7.7528   2.0000                                                             
     3  1  1.50        -2.7121   1.0000                                                             
     3  2  2.50        -2.7212   0.0000                                                             
   Description                                                                                      
     l       E           TYP  RCUT    TYP  RCUT                                                     
     0     -7.7528455     23  1.900                                                                 
     0     -3.3096929     23  1.900                                                                 
     1     -2.7120682     23  1.900                                                                 
     1     13.6058260     23  1.900                                                                 
     2     -2.7211652      7  1.900                                                                 
  local pseudopotential read in
  partial core-charges read in
  partial kinetic energy density read in
  atomic valenz-charges read in
  non local Contribution for L=           0  read in
    real space projection operators read in
  non local Contribution for L=           0  read in
    real space projection operators read in
  non local Contribution for L=           1  read in
    real space projection operators read in
  non local Contribution for L=           1  read in
    real space projection operators read in
    PAW grid and wavefunctions read in
 
   number of l-projection  operators is LMAX  =           4
   number of lm-projection operators is LMMAX =           8
 
 Optimization of the real space projectors (new method)

 maximal supplied QI-value         = 17.01
 optimisation between [QCUT,QGAM] = [ 11.40, 22.79] = [ 36.36,145.44] Ry 
 Optimized for a Real-space Cutoff    1.47 Angstroem

   l    n(q)    QCUT    max X(q) W(low)/X(q) W(high)/X(q)  e(spline) 
   1     10    11.395     4.267    0.90E-04    0.11E-03    0.18E-06
   1     10    11.395     5.750    0.14E-03    0.15E-03    0.25E-06
   2      9    11.395    53.656    0.13E-03    0.36E-04    0.15E-06
   2      9    11.395    49.521    0.14E-03    0.36E-04    0.15E-06
   0     10    11.395    31.246    0.58E-04    0.17E-05    0.98E-07
   0     10    11.395    12.201    0.41E-04    0.11E-05    0.82E-07
 Optimization of the real space projectors (new method)

 maximal supplied QI-value         = 16.25
 optimisation between [QCUT,QGAM] = [ 11.38, 22.75] = [ 36.24,144.96] Ry 
 Optimized for a Real-space Cutoff    1.47 Angstroem

   l    n(q)    QCUT    max X(q) W(low)/X(q) W(high)/X(q)  e(spline) 
   1     10    11.376     4.946    0.88E-04    0.16E-03    0.15E-06
   1     10    11.376     5.991    0.13E-03    0.24E-03    0.21E-06
   2      9    11.376    46.947    0.87E-04    0.91E-04    0.20E-06
   2      9    11.376    42.928    0.91E-04    0.94E-04    0.20E-06
   0     10    11.376    68.324    0.58E-04    0.21E-04    0.82E-07
   0     10    11.376    36.926    0.52E-04    0.19E-04    0.78E-07
 Optimization of the real space projectors (new method)

 maximal supplied QI-value         = 19.84
 optimisation between [QCUT,QGAM] = [ 11.31, 22.82] = [ 35.82,145.81] Ry 
 Optimized for a Real-space Cutoff    1.16 Angstroem

   l    n(q)    QCUT    max X(q) W(low)/X(q) W(high)/X(q)  e(spline) 
   0      8    11.310   176.870    0.22E-03    0.22E-03    0.34E-07
   0      8    11.310   105.762    0.21E-03    0.22E-03    0.33E-07
   1      7    11.310    55.370    0.19E-03    0.26E-03    0.72E-07
   1      7    11.310    20.208    0.18E-03    0.24E-03    0.66E-07
  PAW_PBE Fe_pv 02Aug2007               :
 energy of atom  1       EATOM=-2457.4239
 kinetic energy error for atom=    0.0069 (will be added to EATOM!!)
  PAW_PBE Co_pv 23Apr2009               :
 energy of atom  2       EATOM=-2948.1334
 kinetic energy error for atom=    0.0060 (will be added to EATOM!!)
PAW_PBE Al 04Jan2001                    :
 energy of atom  3       EATOM=  -53.5387
 kinetic energy error for atom=    0.0003 (will be added to EATOM!!)
 
 
 POSCAR: Heusler tetragonAl
  positions in direct lattice
  velocities in cartesian coordinates
 exchange correlation table for  LEXCH =        8
   RHO(1)=    0.500       N(1)  =     2000
   RHO(2)=  100.500       N(2)  =     4000
 


--------------------------------------------------------------------------------------------------------


 ion  position               nearest neighbor table
   1  0.250  0.250  0.250-   9 2.48  10 2.48  11 2.48  12 2.48  13 2.48  14 2.48  15 2.48  16 2.48

   2  0.250  0.750  0.250-   9 2.48  10 2.48  11 2.48  12 2.48  13 2.48  14 2.48  15 2.48  16 2.48

   3  0.750  0.250  0.250-   9 2.48  10 2.48  11 2.48  12 2.48  13 2.48  14 2.48  15 2.48  16 2.48

   4  0.750  0.750  0.250-   9 2.48  10 2.48  11 2.48  12 2.48  13 2.48  14 2.48  15 2.48  16 2.48

   5  0.250  0.250  0.750-   9 2.48  10 2.48  11 2.48  12 2.48  13 2.48  14 2.48  15 2.48  16 2.48

   6  0.750  0.250  0.750-   9 2.48  10 2.48  11 2.48  12 2.48  13 2.48  14 2.48  15 2.48  16 2.48

   7  0.250  0.750  0.750-   9 2.48  10 2.48  11 2.48  12 2.48  13 2.48  14 2.48  15 2.48  16 2.48

   8  0.750  0.750  0.750-   9 2.48  10 2.48  11 2.48  12 2.48  13 2.48  14 2.48  15 2.48  16 2.48

   9  0.500  0.000  0.000-   1 2.48   2 2.48   3 2.48   4 2.48   5 2.48   6 2.48   7 2.48   8 2.48
                            13 2.87  13 2.87  16 2.87  15 2.87  15 2.87  16 2.87
  10  0.000  0.500  0.000-   1 2.48   2 2.48   3 2.48   4 2.48   5 2.48   6 2.48   7 2.48   8 2.48
                            14 2.87  14 2.87  16 2.87  15 2.87  16 2.87  15 2.87
  11  0.000  0.000  0.500-   1 2.48   2 2.48   3 2.48   4 2.48   5 2.48   6 2.48   7 2.48   8 2.48
                            16 2.87  16 2.87  13 2.87  14 2.87  14 2.87  13 2.87
  12  0.500  0.500  0.500-   1 2.48   2 2.48   3 2.48   4 2.48   5 2.48   6 2.48   7 2.48   8 2.48
                            15 2.87  15 2.87  13 2.87  14 2.87  13 2.87  14 2.87
  13  0.500  0.000  0.500-   1 2.48   2 2.48   3 2.48   4 2.48   5 2.48   6 2.48   7 2.48   8 2.48
                             9 2.87   9 2.87  12 2.87  11 2.87  12 2.87  11 2.87
  14  0.000  0.500  0.500-   1 2.48   2 2.48   3 2.48   4 2.48   5 2.48   6 2.48   7 2.48   8 2.48
                            10 2.87  10 2.87  12 2.87  11 2.87  11 2.87  12 2.87
  15  0.500  0.500  0.000-   1 2.48   2 2.48   3 2.48   4 2.48   5 2.48   6 2.48   7 2.48   8 2.48
                            12 2.87  12 2.87   9 2.87  10 2.87   9 2.87  10 2.87
  16  0.000  0.000  0.000-   1 2.48   2 2.48   3 2.48   4 2.48   5 2.48   6 2.48   7 2.48   8 2.48
                            11 2.87  11 2.87   9 2.87  10 2.87  10 2.87   9 2.87
 
  LATTYP: Found a simple tetragonal cell.
 ALAT       =     5.7337574122
 C/A-ratio  =     0.9998023646
  
  Lattice vectors:
  
 A1 = (   5.7337574122,   0.0000000000,   0.0000000000)
 A2 = (   0.0000000000,   5.7337574122,   0.0000000000)
 A3 = (   0.0000000000,   0.0000000000,   5.7326242188)


Analysis of symmetry for initial positions (statically):
=====================================================================
 Subroutine PRICEL returns following result:
 
  LATTYP: Found a body centered tetragonal cell.
 ALAT       =     4.0543787478
 C/A-ratio  =     1.4139340637
  
  Lattice vectors:
  
 A1 = (   2.8668787061,   0.0000000000,  -2.8663121094)
 A2 = (  -2.8668787061,   0.0000000000,  -2.8663121094)
 A3 = (   0.0000000000,   2.8668787061,   2.8663121094)
 
   4 primitive cells build up your supercell.
 

 Routine SETGRP: Setting up the symmetry group for a 
 simple tetragonal supercell.


 Subroutine GETGRP returns: Found 16 space group operations
 (whereof 16 operations were pure point group operations)
 out of a pool of 16 trial point group operations.


The static configuration has the point symmetry D_4h.


Analysis of symmetry for dynamics (positions and initial velocities):
=====================================================================
 Subroutine PRICEL returns following result:
 
  LATTYP: Found a body centered tetragonal cell.
 ALAT       =     4.0543787478
 C/A-ratio  =     1.4139340637
  
  Lattice vectors:
  
 A1 = (   2.8668787061,   0.0000000000,  -2.8663121094)
 A2 = (  -2.8668787061,   0.0000000000,  -2.8663121094)
 A3 = (   0.0000000000,   2.8668787061,   2.8663121094)
 
   4 primitive cells build up your supercell.
 

 Routine SETGRP: Setting up the symmetry group for a 
 simple tetragonal supercell.


 Subroutine GETGRP returns: Found 16 space group operations
 (whereof 16 operations were pure point group operations)
 out of a pool of 16 trial point group operations.


The dynamic configuration has the point symmetry D_4h.


Analysis of structural, dynamic, and magnetic symmetry:
=====================================================================
 Subroutine PRICEL returns following result:
 
  LATTYP: Found a body centered tetragonal cell.
 ALAT       =     4.0543787478
 C/A-ratio  =     1.4139340637
  
  Lattice vectors:
  
 A1 = (   2.8668787061,   0.0000000000,  -2.8663121094)
 A2 = (  -2.8668787061,   0.0000000000,  -2.8663121094)
 A3 = (   0.0000000000,   2.8668787061,   2.8663121094)
 
   4 primitive cells build up your supercell.
 

 Routine SETGRP: Setting up the symmetry group for a 
 simple tetragonal supercell.


 Subroutine GETGRP returns: Found 16 space group operations
 (whereof 16 operations were pure point group operations)
 out of a pool of 16 trial point group operations.


The overall configuration has the point symmetry D_4h.


 Subroutine INISYM returns: Found 16 space group operations
 (whereof 16 operations are pure point group operations),
 and found     4 'primitive' translations


----------------------------------------------------------------------------------------

                                     Primitive cell                                     

  volume of cell :      47.1164

  direct lattice vectors                    reciprocal lattice vectors
     2.866878706  0.000000000 -2.866312109     0.174405704  0.174405704 -0.174440180
    -2.866878706  0.000000000 -2.866312109    -0.174405704  0.174405704 -0.174440180
     0.000000000  2.866878706  2.866312109     0.000000000  0.348811409  0.000000000

  length of vectors
     4.053978123  4.053978123  4.053978123     0.302099447  0.302099447  0.348811409

  position of ions in fractional coordinates (direct lattice)
     0.250000000  0.750000000  0.500000000
     0.750000000  0.250000000  0.500000000
     0.500000000  0.500000000  0.000000000
     1.000000000  1.000000000  0.000000000

  ion indices of the primitive-cell ions
   primitive index   ion index
                 1           1
                 2           2
                 3           9
                 4          13

----------------------------------------------------------------------------------------

 
 
 KPOINTS: Ni7CoMn5CrSn2                           

Automatic generation of k-mesh.
 Grid dimensions read from file:
 generate k-points for:   15   15   15

 Generating k-lattice:

  Cartesian coordinates                     Fractional coordinates (reciprocal lattice)
     0.011627047  0.000000000  0.000000000     0.066666667  0.000000000  0.000000000
     0.000000000  0.011627047  0.000000000     0.000000000  0.066666667  0.000000000
     0.000000000  0.000000000  0.011629345     0.000000000  0.000000000  0.066666667

  Length of vectors
     0.011627047  0.011627047  0.011629345

  Shift w.r.t. Gamma in fractional coordinates (k-lattice)
     0.000000000  0.000000000  0.000000000

 
 Subroutine IBZKPT returns following result:
 ===========================================
 
 Found    288 irreducible k-points:
 
 Following reciprocal coordinates:
            Coordinates               Weight
  0.000000  0.000000  0.000000      1.000000
  0.066667  0.000000  0.000000      4.000000
  0.133333  0.000000  0.000000      4.000000
  0.200000  0.000000  0.000000      4.000000
  0.266667  0.000000  0.000000      4.000000
  0.333333  0.000000  0.000000      4.000000
  0.400000  0.000000  0.000000      4.000000
  0.466667  0.000000  0.000000      4.000000
  0.066667  0.066667  0.000000      4.000000
  0.133333  0.066667  0.000000      8.000000
  0.200000  0.066667  0.000000      8.000000
  0.266667  0.066667  0.000000      8.000000
  0.333333  0.066667  0.000000      8.000000
  0.400000  0.066667  0.000000      8.000000
  0.466667  0.066667  0.000000      8.000000
  0.133333  0.133333  0.000000      4.000000
  0.200000  0.133333  0.000000      8.000000
  0.266667  0.133333  0.000000      8.000000
  0.333333  0.133333  0.000000      8.000000
  0.400000  0.133333  0.000000      8.000000
  0.466667  0.133333  0.000000      8.000000
  0.200000  0.200000  0.000000      4.000000
  0.266667  0.200000  0.000000      8.000000
  0.333333  0.200000  0.000000      8.000000
  0.400000  0.200000  0.000000      8.000000
  0.466667  0.200000  0.000000      8.000000
  0.266667  0.266667  0.000000      4.000000
  0.333333  0.266667  0.000000      8.000000
  0.400000  0.266667  0.000000      8.000000
  0.466667  0.266667  0.000000      8.000000
  0.333333  0.333333  0.000000      4.000000
  0.400000  0.333333  0.000000      8.000000
  0.466667  0.333333  0.000000      8.000000
  0.400000  0.400000  0.000000      4.000000
  0.466667  0.400000  0.000000      8.000000
  0.466667  0.466667  0.000000      4.000000
  0.000000  0.000000  0.066667      2.000000
  0.066667  0.000000  0.066667      8.000000
  0.133333  0.000000  0.066667      8.000000
  0.200000  0.000000  0.066667      8.000000
  0.266667  0.000000  0.066667      8.000000
  0.333333  0.000000  0.066667      8.000000
  0.400000  0.000000  0.066667      8.000000
  0.466667  0.000000  0.066667      8.000000
  0.066667  0.066667  0.066667      8.000000
  0.133333  0.066667  0.066667     16.000000
  0.200000  0.066667  0.066667     16.000000
  0.266667  0.066667  0.066667     16.000000
  0.333333  0.066667  0.066667     16.000000
  0.400000  0.066667  0.066667     16.000000
  0.466667  0.066667  0.066667     16.000000
  0.133333  0.133333  0.066667      8.000000
  0.200000  0.133333  0.066667     16.000000
  0.266667  0.133333  0.066667     16.000000
  0.333333  0.133333  0.066667     16.000000
  0.400000  0.133333  0.066667     16.000000
  0.466667  0.133333  0.066667     16.000000
  0.200000  0.200000  0.066667      8.000000
  0.266667  0.200000  0.066667     16.000000
  0.333333  0.200000  0.066667     16.000000
  0.400000  0.200000  0.066667     16.000000
  0.466667  0.200000  0.066667     16.000000
  0.266667  0.266667  0.066667      8.000000
  0.333333  0.266667  0.066667     16.000000
  0.400000  0.266667  0.066667     16.000000
  0.466667  0.266667  0.066667     16.000000
  0.333333  0.333333  0.066667      8.000000
  0.400000  0.333333  0.066667     16.000000
  0.466667  0.333333  0.066667     16.000000
  0.400000  0.400000  0.066667      8.000000
  0.466667  0.400000  0.066667     16.000000
  0.466667  0.466667  0.066667      8.000000
  0.000000  0.000000  0.133333      2.000000
  0.066667  0.000000  0.133333      8.000000
  0.133333  0.000000  0.133333      8.000000
  0.200000  0.000000  0.133333      8.000000
  0.266667  0.000000  0.133333      8.000000
  0.333333  0.000000  0.133333      8.000000
  0.400000  0.000000  0.133333      8.000000
  0.466667  0.000000  0.133333      8.000000
  0.066667  0.066667  0.133333      8.000000
  0.133333  0.066667  0.133333     16.000000
  0.200000  0.066667  0.133333     16.000000
  0.266667  0.066667  0.133333     16.000000
  0.333333  0.066667  0.133333     16.000000
  0.400000  0.066667  0.133333     16.000000
  0.466667  0.066667  0.133333     16.000000
  0.133333  0.133333  0.133333      8.000000
  0.200000  0.133333  0.133333     16.000000
  0.266667  0.133333  0.133333     16.000000
  0.333333  0.133333  0.133333     16.000000
  0.400000  0.133333  0.133333     16.000000
  0.466667  0.133333  0.133333     16.000000
  0.200000  0.200000  0.133333      8.000000
  0.266667  0.200000  0.133333     16.000000
  0.333333  0.200000  0.133333     16.000000
  0.400000  0.200000  0.133333     16.000000
  0.466667  0.200000  0.133333     16.000000
  0.266667  0.266667  0.133333      8.000000
  0.333333  0.266667  0.133333     16.000000
  0.400000  0.266667  0.133333     16.000000
  0.466667  0.266667  0.133333     16.000000
  0.333333  0.333333  0.133333      8.000000
  0.400000  0.333333  0.133333     16.000000
  0.466667  0.333333  0.133333     16.000000
  0.400000  0.400000  0.133333      8.000000
  0.466667  0.400000  0.133333     16.000000
  0.466667  0.466667  0.133333      8.000000
  0.000000  0.000000  0.200000      2.000000
  0.066667  0.000000  0.200000      8.000000
  0.133333  0.000000  0.200000      8.000000
  0.200000  0.000000  0.200000      8.000000
  0.266667  0.000000  0.200000      8.000000
  0.333333  0.000000  0.200000      8.000000
  0.400000  0.000000  0.200000      8.000000
  0.466667  0.000000  0.200000      8.000000
  0.066667  0.066667  0.200000      8.000000
  0.133333  0.066667  0.200000     16.000000
  0.200000  0.066667  0.200000     16.000000
  0.266667  0.066667  0.200000     16.000000
  0.333333  0.066667  0.200000     16.000000
  0.400000  0.066667  0.200000     16.000000
  0.466667  0.066667  0.200000     16.000000
  0.133333  0.133333  0.200000      8.000000
  0.200000  0.133333  0.200000     16.000000
  0.266667  0.133333  0.200000     16.000000
  0.333333  0.133333  0.200000     16.000000
  0.400000  0.133333  0.200000     16.000000
  0.466667  0.133333  0.200000     16.000000
  0.200000  0.200000  0.200000      8.000000
  0.266667  0.200000  0.200000     16.000000
  0.333333  0.200000  0.200000     16.000000
  0.400000  0.200000  0.200000     16.000000
  0.466667  0.200000  0.200000     16.000000
  0.266667  0.266667  0.200000      8.000000
  0.333333  0.266667  0.200000     16.000000
  0.400000  0.266667  0.200000     16.000000
  0.466667  0.266667  0.200000     16.000000
  0.333333  0.333333  0.200000      8.000000
  0.400000  0.333333  0.200000     16.000000
  0.466667  0.333333  0.200000     16.000000
  0.400000  0.400000  0.200000      8.000000
  0.466667  0.400000  0.200000     16.000000
  0.466667  0.466667  0.200000      8.000000
  0.000000  0.000000  0.266667      2.000000
  0.066667  0.000000  0.266667      8.000000
  0.133333  0.000000  0.266667      8.000000
  0.200000  0.000000  0.266667      8.000000
  0.266667  0.000000  0.266667      8.000000
  0.333333  0.000000  0.266667      8.000000
  0.400000  0.000000  0.266667      8.000000
  0.466667  0.000000  0.266667      8.000000
  0.066667  0.066667  0.266667      8.000000
  0.133333  0.066667  0.266667     16.000000
  0.200000  0.066667  0.266667     16.000000
  0.266667  0.066667  0.266667     16.000000
  0.333333  0.066667  0.266667     16.000000
  0.400000  0.066667  0.266667     16.000000
  0.466667  0.066667  0.266667     16.000000
  0.133333  0.133333  0.266667      8.000000
  0.200000  0.133333  0.266667     16.000000
  0.266667  0.133333  0.266667     16.000000
  0.333333  0.133333  0.266667     16.000000
  0.400000  0.133333  0.266667     16.000000
  0.466667  0.133333  0.266667     16.000000
  0.200000  0.200000  0.266667      8.000000
  0.266667  0.200000  0.266667     16.000000
  0.333333  0.200000  0.266667     16.000000
  0.400000  0.200000  0.266667     16.000000
  0.466667  0.200000  0.266667     16.000000
  0.266667  0.266667  0.266667      8.000000
  0.333333  0.266667  0.266667     16.000000
  0.400000  0.266667  0.266667     16.000000
  0.466667  0.266667  0.266667     16.000000
  0.333333  0.333333  0.266667      8.000000
  0.400000  0.333333  0.266667     16.000000
  0.466667  0.333333  0.266667     16.000000
  0.400000  0.400000  0.266667      8.000000
  0.466667  0.400000  0.266667     16.000000
  0.466667  0.466667  0.266667      8.000000
  0.000000  0.000000  0.333333      2.000000
  0.066667  0.000000  0.333333      8.000000
  0.133333  0.000000  0.333333      8.000000
  0.200000  0.000000  0.333333      8.000000
  0.266667  0.000000  0.333333      8.000000
  0.333333  0.000000  0.333333      8.000000
  0.400000  0.000000  0.333333      8.000000
  0.466667  0.000000  0.333333      8.000000
  0.066667  0.066667  0.333333      8.000000
  0.133333  0.066667  0.333333     16.000000
  0.200000  0.066667  0.333333     16.000000
  0.266667  0.066667  0.333333     16.000000
  0.333333  0.066667  0.333333     16.000000
  0.400000  0.066667  0.333333     16.000000
  0.466667  0.066667  0.333333     16.000000
  0.133333  0.133333  0.333333      8.000000
  0.200000  0.133333  0.333333     16.000000
  0.266667  0.133333  0.333333     16.000000
  0.333333  0.133333  0.333333     16.000000
  0.400000  0.133333  0.333333     16.000000
  0.466667  0.133333  0.333333     16.000000
  0.200000  0.200000  0.333333      8.000000
  0.266667  0.200000  0.333333     16.000000
  0.333333  0.200000  0.333333     16.000000
  0.400000  0.200000  0.333333     16.000000
  0.466667  0.200000  0.333333     16.000000
  0.266667  0.266667  0.333333      8.000000
  0.333333  0.266667  0.333333     16.000000
  0.400000  0.266667  0.333333     16.000000
  0.466667  0.266667  0.333333     16.000000
  0.333333  0.333333  0.333333      8.000000
  0.400000  0.333333  0.333333     16.000000
  0.466667  0.333333  0.333333     16.000000
  0.400000  0.400000  0.333333      8.000000
  0.466667  0.400000  0.333333     16.000000
  0.466667  0.466667  0.333333      8.000000
  0.000000  0.000000  0.400000      2.000000
  0.066667  0.000000  0.400000      8.000000
  0.133333  0.000000  0.400000      8.000000
  0.200000  0.000000  0.400000      8.000000
  0.266667  0.000000  0.400000      8.000000
  0.333333  0.000000  0.400000      8.000000
  0.400000  0.000000  0.400000      8.000000
  0.466667  0.000000  0.400000      8.000000
  0.066667  0.066667  0.400000      8.000000
  0.133333  0.066667  0.400000     16.000000
  0.200000  0.066667  0.400000     16.000000
  0.266667  0.066667  0.400000     16.000000
  0.333333  0.066667  0.400000     16.000000
  0.400000  0.066667  0.400000     16.000000
  0.466667  0.066667  0.400000     16.000000
  0.133333  0.133333  0.400000      8.000000
  0.200000  0.133333  0.400000     16.000000
  0.266667  0.133333  0.400000     16.000000
  0.333333  0.133333  0.400000     16.000000
  0.400000  0.133333  0.400000     16.000000
  0.466667  0.133333  0.400000     16.000000
  0.200000  0.200000  0.400000      8.000000
  0.266667  0.200000  0.400000     16.000000
  0.333333  0.200000  0.400000     16.000000
  0.400000  0.200000  0.400000     16.000000
  0.466667  0.200000  0.400000     16.000000
  0.266667  0.266667  0.400000      8.000000
  0.333333  0.266667  0.400000     16.000000
  0.400000  0.266667  0.400000     16.000000
  0.466667  0.266667  0.400000     16.000000
  0.333333  0.333333  0.400000      8.000000
  0.400000  0.333333  0.400000     16.000000
  0.466667  0.333333  0.400000     16.000000
  0.400000  0.400000  0.400000      8.000000
  0.466667  0.400000  0.400000     16.000000
  0.466667  0.466667  0.400000      8.000000
  0.000000  0.000000  0.466667      2.000000
  0.066667  0.000000  0.466667      8.000000
  0.133333  0.000000  0.466667      8.000000
  0.200000  0.000000  0.466667      8.000000
  0.266667  0.000000  0.466667      8.000000
  0.333333  0.000000  0.466667      8.000000
  0.400000  0.000000  0.466667      8.000000
  0.466667  0.000000  0.466667      8.000000
  0.066667  0.066667  0.466667      8.000000
  0.133333  0.066667  0.466667     16.000000
  0.200000  0.066667  0.466667     16.000000
  0.266667  0.066667  0.466667     16.000000
  0.333333  0.066667  0.466667     16.000000
  0.400000  0.066667  0.466667     16.000000
  0.466667  0.066667  0.466667     16.000000
  0.133333  0.133333  0.466667      8.000000
  0.200000  0.133333  0.466667     16.000000
  0.266667  0.133333  0.466667     16.000000
  0.333333  0.133333  0.466667     16.000000
  0.400000  0.133333  0.466667     16.000000
  0.466667  0.133333  0.466667     16.000000
  0.200000  0.200000  0.466667      8.000000
  0.266667  0.200000  0.466667     16.000000
  0.333333  0.200000  0.466667     16.000000
  0.400000  0.200000  0.466667     16.000000
  0.466667  0.200000  0.466667     16.000000
  0.266667  0.266667  0.466667      8.000000
  0.333333  0.266667  0.466667     16.000000
  0.400000  0.266667  0.466667     16.000000
  0.466667  0.266667  0.466667     16.000000
  0.333333  0.333333  0.466667      8.000000
  0.400000  0.333333  0.466667     16.000000
  0.466667  0.333333  0.466667     16.000000
  0.400000  0.400000  0.466667      8.000000
  0.466667  0.400000  0.466667     16.000000
  0.466667  0.466667  0.466667      8.000000
 
 Following cartesian coordinates:
            Coordinates               Weight
  0.000000  0.000000  0.000000      1.000000
  0.067437  0.000000  0.000000      4.000000
  0.134874  0.000000  0.000000      4.000000
  0.202311  0.000000  0.000000      4.000000
  0.269747  0.000000  0.000000      4.000000
  0.337184  0.000000  0.000000      4.000000
  0.404621  0.000000  0.000000      4.000000
  0.472058  0.000000  0.000000      4.000000
  0.067437  0.067437  0.000000      4.000000
  0.134874  0.067437  0.000000      8.000000
  0.202311  0.067437  0.000000      8.000000
  0.269747  0.067437  0.000000      8.000000
  0.337184  0.067437  0.000000      8.000000
  0.404621  0.067437  0.000000      8.000000
  0.472058  0.067437  0.000000      8.000000
  0.134874  0.134874  0.000000      4.000000
  0.202311  0.134874  0.000000      8.000000
  0.269747  0.134874  0.000000      8.000000
  0.337184  0.134874  0.000000      8.000000
  0.404621  0.134874  0.000000      8.000000
  0.472058  0.134874  0.000000      8.000000
  0.202311  0.202311  0.000000      4.000000
  0.269747  0.202311  0.000000      8.000000
  0.337184  0.202311  0.000000      8.000000
  0.404621  0.202311  0.000000      8.000000
  0.472058  0.202311  0.000000      8.000000
  0.269747  0.269747  0.000000      4.000000
  0.337184  0.269747  0.000000      8.000000
  0.404621  0.269747  0.000000      8.000000
  0.472058  0.269747  0.000000      8.000000
  0.337184  0.337184  0.000000      4.000000
  0.404621  0.337184  0.000000      8.000000
  0.472058  0.337184  0.000000      8.000000
  0.404621  0.404621  0.000000      4.000000
  0.472058  0.404621  0.000000      8.000000
  0.472058  0.472058  0.000000      4.000000
  0.000000  0.000000  0.067450      2.000000
  0.067437  0.000000  0.067450      8.000000
  0.134874  0.000000  0.067450      8.000000
  0.202311  0.000000  0.067450      8.000000
  0.269747  0.000000  0.067450      8.000000
  0.337184  0.000000  0.067450      8.000000
  0.404621  0.000000  0.067450      8.000000
  0.472058  0.000000  0.067450      8.000000
  0.067437  0.067437  0.067450      8.000000
  0.134874  0.067437  0.067450     16.000000
  0.202311  0.067437  0.067450     16.000000
  0.269747  0.067437  0.067450     16.000000
  0.337184  0.067437  0.067450     16.000000
  0.404621  0.067437  0.067450     16.000000
  0.472058  0.067437  0.067450     16.000000
  0.134874  0.134874  0.067450      8.000000
  0.202311  0.134874  0.067450     16.000000
  0.269747  0.134874  0.067450     16.000000
  0.337184  0.134874  0.067450     16.000000
  0.404621  0.134874  0.067450     16.000000
  0.472058  0.134874  0.067450     16.000000
  0.202311  0.202311  0.067450      8.000000
  0.269747  0.202311  0.067450     16.000000
  0.337184  0.202311  0.067450     16.000000
  0.404621  0.202311  0.067450     16.000000
  0.472058  0.202311  0.067450     16.000000
  0.269747  0.269747  0.067450      8.000000
  0.337184  0.269747  0.067450     16.000000
  0.404621  0.269747  0.067450     16.000000
  0.472058  0.269747  0.067450     16.000000
  0.337184  0.337184  0.067450      8.000000
  0.404621  0.337184  0.067450     16.000000
  0.472058  0.337184  0.067450     16.000000
  0.404621  0.404621  0.067450      8.000000
  0.472058  0.404621  0.067450     16.000000
  0.472058  0.472058  0.067450      8.000000
  0.000000  0.000000  0.134900      2.000000
  0.067437  0.000000  0.134900      8.000000
  0.134874  0.000000  0.134900      8.000000
  0.202311  0.000000  0.134900      8.000000
  0.269747  0.000000  0.134900      8.000000
  0.337184  0.000000  0.134900      8.000000
  0.404621  0.000000  0.134900      8.000000
  0.472058  0.000000  0.134900      8.000000
  0.067437  0.067437  0.134900      8.000000
  0.134874  0.067437  0.134900     16.000000
  0.202311  0.067437  0.134900     16.000000
  0.269747  0.067437  0.134900     16.000000
  0.337184  0.067437  0.134900     16.000000
  0.404621  0.067437  0.134900     16.000000
  0.472058  0.067437  0.134900     16.000000
  0.134874  0.134874  0.134900      8.000000
  0.202311  0.134874  0.134900     16.000000
  0.269747  0.134874  0.134900     16.000000
  0.337184  0.134874  0.134900     16.000000
  0.404621  0.134874  0.134900     16.000000
  0.472058  0.134874  0.134900     16.000000
  0.202311  0.202311  0.134900      8.000000
  0.269747  0.202311  0.134900     16.000000
  0.337184  0.202311  0.134900     16.000000
  0.404621  0.202311  0.134900     16.000000
  0.472058  0.202311  0.134900     16.000000
  0.269747  0.269747  0.134900      8.000000
  0.337184  0.269747  0.134900     16.000000
  0.404621  0.269747  0.134900     16.000000
  0.472058  0.269747  0.134900     16.000000
  0.337184  0.337184  0.134900      8.000000
  0.404621  0.337184  0.134900     16.000000
  0.472058  0.337184  0.134900     16.000000
  0.404621  0.404621  0.134900      8.000000
  0.472058  0.404621  0.134900     16.000000
  0.472058  0.472058  0.134900      8.000000
  0.000000  0.000000  0.202351      2.000000
  0.067437  0.000000  0.202351      8.000000
  0.134874  0.000000  0.202351      8.000000
  0.202311  0.000000  0.202351      8.000000
  0.269747  0.000000  0.202351      8.000000
  0.337184  0.000000  0.202351      8.000000
  0.404621  0.000000  0.202351      8.000000
  0.472058  0.000000  0.202351      8.000000
  0.067437  0.067437  0.202351      8.000000
  0.134874  0.067437  0.202351     16.000000
  0.202311  0.067437  0.202351     16.000000
  0.269747  0.067437  0.202351     16.000000
  0.337184  0.067437  0.202351     16.000000
  0.404621  0.067437  0.202351     16.000000
  0.472058  0.067437  0.202351     16.000000
  0.134874  0.134874  0.202351      8.000000
  0.202311  0.134874  0.202351     16.000000
  0.269747  0.134874  0.202351     16.000000
  0.337184  0.134874  0.202351     16.000000
  0.404621  0.134874  0.202351     16.000000
  0.472058  0.134874  0.202351     16.000000
  0.202311  0.202311  0.202351      8.000000
  0.269747  0.202311  0.202351     16.000000
  0.337184  0.202311  0.202351     16.000000
  0.404621  0.202311  0.202351     16.000000
  0.472058  0.202311  0.202351     16.000000
  0.269747  0.269747  0.202351      8.000000
  0.337184  0.269747  0.202351     16.000000
  0.404621  0.269747  0.202351     16.000000
  0.472058  0.269747  0.202351     16.000000
  0.337184  0.337184  0.202351      8.000000
  0.404621  0.337184  0.202351     16.000000
  0.472058  0.337184  0.202351     16.000000
  0.404621  0.404621  0.202351      8.000000
  0.472058  0.404621  0.202351     16.000000
  0.472058  0.472058  0.202351      8.000000
  0.000000  0.000000  0.269801      2.000000
  0.067437  0.000000  0.269801      8.000000
  0.134874  0.000000  0.269801      8.000000
  0.202311  0.000000  0.269801      8.000000
  0.269747  0.000000  0.269801      8.000000
  0.337184  0.000000  0.269801      8.000000
  0.404621  0.000000  0.269801      8.000000
  0.472058  0.000000  0.269801      8.000000
  0.067437  0.067437  0.269801      8.000000
  0.134874  0.067437  0.269801     16.000000
  0.202311  0.067437  0.269801     16.000000
  0.269747  0.067437  0.269801     16.000000
  0.337184  0.067437  0.269801     16.000000
  0.404621  0.067437  0.269801     16.000000
  0.472058  0.067437  0.269801     16.000000
  0.134874  0.134874  0.269801      8.000000
  0.202311  0.134874  0.269801     16.000000
  0.269747  0.134874  0.269801     16.000000
  0.337184  0.134874  0.269801     16.000000
  0.404621  0.134874  0.269801     16.000000
  0.472058  0.134874  0.269801     16.000000
  0.202311  0.202311  0.269801      8.000000
  0.269747  0.202311  0.269801     16.000000
  0.337184  0.202311  0.269801     16.000000
  0.404621  0.202311  0.269801     16.000000
  0.472058  0.202311  0.269801     16.000000
  0.269747  0.269747  0.269801      8.000000
  0.337184  0.269747  0.269801     16.000000
  0.404621  0.269747  0.269801     16.000000
  0.472058  0.269747  0.269801     16.000000
  0.337184  0.337184  0.269801      8.000000
  0.404621  0.337184  0.269801     16.000000
  0.472058  0.337184  0.269801     16.000000
  0.404621  0.404621  0.269801      8.000000
  0.472058  0.404621  0.269801     16.000000
  0.472058  0.472058  0.269801      8.000000
  0.000000  0.000000  0.337251      2.000000
  0.067437  0.000000  0.337251      8.000000
  0.134874  0.000000  0.337251      8.000000
  0.202311  0.000000  0.337251      8.000000
  0.269747  0.000000  0.337251      8.000000
  0.337184  0.000000  0.337251      8.000000
  0.404621  0.000000  0.337251      8.000000
  0.472058  0.000000  0.337251      8.000000
  0.067437  0.067437  0.337251      8.000000
  0.134874  0.067437  0.337251     16.000000
  0.202311  0.067437  0.337251     16.000000
  0.269747  0.067437  0.337251     16.000000
  0.337184  0.067437  0.337251     16.000000
  0.404621  0.067437  0.337251     16.000000
  0.472058  0.067437  0.337251     16.000000
  0.134874  0.134874  0.337251      8.000000
  0.202311  0.134874  0.337251     16.000000
  0.269747  0.134874  0.337251     16.000000
  0.337184  0.134874  0.337251     16.000000
  0.404621  0.134874  0.337251     16.000000
  0.472058  0.134874  0.337251     16.000000
  0.202311  0.202311  0.337251      8.000000
  0.269747  0.202311  0.337251     16.000000
  0.337184  0.202311  0.337251     16.000000
  0.404621  0.202311  0.337251     16.000000
  0.472058  0.202311  0.337251     16.000000
  0.269747  0.269747  0.337251      8.000000
  0.337184  0.269747  0.337251     16.000000
  0.404621  0.269747  0.337251     16.000000
  0.472058  0.269747  0.337251     16.000000
  0.337184  0.337184  0.337251      8.000000
  0.404621  0.337184  0.337251     16.000000
  0.472058  0.337184  0.337251     16.000000
  0.404621  0.404621  0.337251      8.000000
  0.472058  0.404621  0.337251     16.000000
  0.472058  0.472058  0.337251      8.000000
  0.000000  0.000000  0.404701      2.000000
  0.067437  0.000000  0.404701      8.000000
  0.134874  0.000000  0.404701      8.000000
  0.202311  0.000000  0.404701      8.000000
  0.269747  0.000000  0.404701      8.000000
  0.337184  0.000000  0.404701      8.000000
  0.404621  0.000000  0.404701      8.000000
  0.472058  0.000000  0.404701      8.000000
  0.067437  0.067437  0.404701      8.000000
  0.134874  0.067437  0.404701     16.000000
  0.202311  0.067437  0.404701     16.000000
  0.269747  0.067437  0.404701     16.000000
  0.337184  0.067437  0.404701     16.000000
  0.404621  0.067437  0.404701     16.000000
  0.472058  0.067437  0.404701     16.000000
  0.134874  0.134874  0.404701      8.000000
  0.202311  0.134874  0.404701     16.000000
  0.269747  0.134874  0.404701     16.000000
  0.337184  0.134874  0.404701     16.000000
  0.404621  0.134874  0.404701     16.000000
  0.472058  0.134874  0.404701     16.000000
  0.202311  0.202311  0.404701      8.000000
  0.269747  0.202311  0.404701     16.000000
  0.337184  0.202311  0.404701     16.000000
  0.404621  0.202311  0.404701     16.000000
  0.472058  0.202311  0.404701     16.000000
  0.269747  0.269747  0.404701      8.000000
  0.337184  0.269747  0.404701     16.000000
  0.404621  0.269747  0.404701     16.000000
  0.472058  0.269747  0.404701     16.000000
  0.337184  0.337184  0.404701      8.000000
  0.404621  0.337184  0.404701     16.000000
  0.472058  0.337184  0.404701     16.000000
  0.404621  0.404621  0.404701      8.000000
  0.472058  0.404621  0.404701     16.000000
  0.472058  0.472058  0.404701      8.000000
  0.000000  0.000000  0.472151      2.000000
  0.067437  0.000000  0.472151      8.000000
  0.134874  0.000000  0.472151      8.000000
  0.202311  0.000000  0.472151      8.000000
  0.269747  0.000000  0.472151      8.000000
  0.337184  0.000000  0.472151      8.000000
  0.404621  0.000000  0.472151      8.000000
  0.472058  0.000000  0.472151      8.000000
  0.067437  0.067437  0.472151      8.000000
  0.134874  0.067437  0.472151     16.000000
  0.202311  0.067437  0.472151     16.000000
  0.269747  0.067437  0.472151     16.000000
  0.337184  0.067437  0.472151     16.000000
  0.404621  0.067437  0.472151     16.000000
  0.472058  0.067437  0.472151     16.000000
  0.134874  0.134874  0.472151      8.000000
  0.202311  0.134874  0.472151     16.000000
  0.269747  0.134874  0.472151     16.000000
  0.337184  0.134874  0.472151     16.000000
  0.404621  0.134874  0.472151     16.000000
  0.472058  0.134874  0.472151     16.000000
  0.202311  0.202311  0.472151      8.000000
  0.269747  0.202311  0.472151     16.000000
  0.337184  0.202311  0.472151     16.000000
  0.404621  0.202311  0.472151     16.000000
  0.472058  0.202311  0.472151     16.000000
  0.269747  0.269747  0.472151      8.000000
  0.337184  0.269747  0.472151     16.000000
  0.404621  0.269747  0.472151     16.000000
  0.472058  0.269747  0.472151     16.000000
  0.337184  0.337184  0.472151      8.000000
  0.404621  0.337184  0.472151     16.000000
  0.472058  0.337184  0.472151     16.000000
  0.404621  0.404621  0.472151      8.000000
  0.472058  0.404621  0.472151     16.000000
  0.472058  0.472058  0.472151      8.000000
 


--------------------------------------------------------------------------------------------------------




 Dimension of arrays:
   k-points           NKPTS =    288   k-points in BZ     NKDIM =    288   number of bands    NBANDS=    124
   number of dos      NEDOS =   1500   number of ions     NIONS =     16
   non local maximal  LDIM  =      6   non local SUM 2l+1 LMDIM =     18
   total plane-waves  NPLWV =  74088
   max r-space proj   IRMAX =   5327   max aug-charges    IRDMAX= 122583
   dimension x,y,z NGX =    42 NGY =   42 NGZ =   42
   dimension x,y,z NGXF=    84 NGYF=   84 NGZF=   84
   support grid    NGXF=   168 NGYF=  168 NGZF=  168
   ions per type =               8   4   4
   NGX,Y,Z   is equivalent  to a cutoff of  12.18, 12.18, 12.18 a.u.
   NGXF,Y,Z  is equivalent  to a cutoff of  24.36, 24.36, 24.36 a.u.

 SYSTEM =  NiCoMnGa                                
 POSCAR =  Heusler tetragonAl                      

 Startparameter for this run:
   NWRITE =      2    write-flag & timer
   PREC   = accura    normal or accurate (medium, high low for compatibility)
   ISTART =      0    job   : 0-new  1-cont  2-samecut
   ICHARG =      2    charge: 1-file 2-atom 10-const
   ISPIN  =      2    spin polarized calculation?
   LNONCOLLINEAR =      F non collinear calculations
   LSORBIT =      F    spin-orbit coupling
   INIWAV =      1    electr: 0-lowe 1-rand  2-diag
   LASPH  =      F    aspherical Exc in radial PAW
   METAGGA=      F    non-selfconsistent MetaGGA calc.

 Electronic Relaxation 1
   ENCUT  =  500.0 eV  36.75 Ry    6.06 a.u.  10.45 10.45 10.45*2*pi/ulx,y,z
   ENINI  =  500.0     initial cutoff
   ENAUG  =  578.3 eV  augmentation charge cutoff
   NELM   =    160;   NELMIN=  2; NELMDL= -6     # of ELM steps 
   EDIFF  = 0.1E-05   stopping-criterion for ELM
   LREAL  =      T    real-space projection
   NLSPLINE    = F    spline interpolate recip. space projectors
   LCOMPAT=      F    compatible to vasp.4.4
   GGA_COMPAT  = T    GGA compatible to vasp.4.4-vasp.4.6
   LMAXPAW     = -100 max onsite density
   LMAXMIX     =    6 max onsite mixed and CHGCAR
   VOSKOWN=      0    Vosko Wilk Nusair interpolation
   ROPT   =   -0.00025  -0.00025  -0.00025
 Ionic relaxation
   EDIFFG = -.1E-02   stopping-criterion for IOM
   NSW    =      0    number of steps for IOM
   NBLOCK =      1;   KBLOCK =      1    inner block; outer block 
   IBRION =     -1    ionic relax: 0-MD 1-quasi-New 2-CG
   NFREE  =      1    steps in history (QN), initial steepest desc. (CG)
   ISIF   =      3    stress and relaxation
   IWAVPR =     10    prediction:  0-non 1-charg 2-wave 3-comb
   ISYM   =      2    0-nonsym 1-usesym 2-fastsym
   LCORR  =      T    Harris-Foulkes like correction to forces

   POTIM  = 0.0020    time-step for ionic-motion
   TEIN   =    0.0    initial temperature
   TEBEG  =    0.0;   TEEND  =   0.0 temperature during run
   SMASS  =  -3.00    Nose mass-parameter (am)
   estimated Nose-frequenzy (Omega)   =  0.10E-29 period in steps = 0.31E+49 mass=  -0.751E-27a.u.
   SCALEE = 1.0000    scale energy and forces
   NPACO  =    256;   APACO  = 16.0  distance and # of slots for P.C.
   PSTRESS=    0.0 pullay stress

  Mass of Ions in am
   POMASS =  55.85 58.93 26.98
  Ionic Valenz
   ZVAL   =  14.00 15.00  3.00
  Atomic Wigner-Seitz radii
   RWIGS  =  -1.00 -1.00 -1.00
  virtual crystal weights 
   VCA    =   1.00  1.00  1.00
   NELECT =     184.0000    total number of electrons
   NUPDOWN=      -1.0000    fix difference up-down

 DOS related values:
   EMIN   =  10.00;   EMAX   =-10.00  energy-range for DOS
   EFERMI =   0.00
   ISMEAR =     1;   SIGMA  =   0.10  broadening in eV -4-tet -1-fermi 0-gaus

 Electronic relaxation 2 (details)
   IALGO  =     38    algorithm
   LDIAG  =      T    sub-space diagonalisation (order eigenvalues)
   LSUBROT=      F    optimize rotation matrix (better conditioning)
   TURBO    =      0    0=normal 1=particle mesh
   IRESTART =      0    0=no restart 2=restart with 2 vectors
   NREBOOT  =      0    no. of reboots
   NMIN     =      0    reboot dimension
   EREF     =   0.00    reference energy to select bands
   IMIX   =      4    mixing-type and parameters
     AMIX     =   0.18;   BMIX     =  0.00
     AMIX_MAG =   0.26;   BMIX_MAG =  0.01
     AMIN     =   0.10
     WC   =   100.;   INIMIX=   1;  MIXPRE=   1;  MAXMIX= -45

 Intra band minimization:
   WEIMIN = 0.0000     energy-eigenvalue tresh-hold
   EBREAK =  0.20E-08  absolut break condition
   DEPER  =   0.30     relativ break condition  

   TIME   =   0.40     timestep for ELM

  volume/ion in A,a.u.               =      11.78        79.49
  Fermi-wavevector in a.u.,A,eV,Ry     =   1.624065  3.069038 35.886551  2.637587
  Thomas-Fermi vector in A             =   2.717413
 
 Write flags
   LWAVE        =      F    write WAVECAR
   LDOWNSAMPLE  =      F    k-point downsampling of WAVECAR
   LCHARG       =      T    write CHGCAR
   LVTOT        =      F    write LOCPOT, total local potential
   LVHAR        =      F    write LOCPOT, Hartree potential only
   LELF         =      F    write electronic localiz. function (ELF)
   LORBIT       =     10    0 simple, 1 ext, 2 COOP (PROOUT), +10 PAW based schemes


 Dipole corrections
   LMONO  =      F    monopole corrections only (constant potential shift)
   LDIPOL =      F    correct potential (dipole corrections)
   IDIPOL =      0    1-x, 2-y, 3-z, 4-all directions 
   EPSILON=  1.0000000 bulk dielectric constant

 Exchange correlation treatment:
   GGA     =    --    GGA type
   LEXCH   =     8    internal setting for exchange type
   VOSKOWN=      0    Vosko Wilk Nusair interpolation
   LHFCALC =     F    Hartree Fock is set to
   LHFONE  =     F    Hartree Fock one center treatment
   AEXX    =    0.0000 exact exchange contribution

 Linear response parameters
   LEPSILON=     F    determine dielectric tensor
   LRPA    =     F    only Hartree local field effects (RPA)
   LNABLA  =     F    use nabla operator in PAW spheres
   LVEL    =     F    velocity operator in full k-point grid
   LINTERFAST=   F  fast interpolation
   KINTER  =     0    interpolate to denser k-point grid
   CSHIFT  =0.1000    complex shift for real part using Kramers Kronig
   OMEGAMAX=  -1.0    maximum frequency
   DEG_THRESHOLD= 0.2000000E-02 threshold for treating states as degnerate
   RTIME   =   -0.100 relaxation time in fs
  (WPLASMAI=    0.000 imaginary part of plasma frequency in eV, 0.658/RTIME)
   DFIELD  = 0.0000000 0.0000000 0.0000000 field for delta impulse in time
 
 Orbital magnetization related:
   ORBITALMAG=     F  switch on orbital magnetization
   LCHIMAG   =     F  perturbation theory with respect to B field
   DQ        =  0.001000  dq finite difference perturbation B field
   LLRAUG    =     F  two centre corrections for induced B field



--------------------------------------------------------------------------------------------------------


 Static calculation
 charge density and potential will be updated during run
 spin polarized calculation
 Variant of blocked Davidson
 Davidson routine will perform the subspace rotation
 perform sub-space diagonalisation
    after iterative eigenvector-optimisation
 modified Broyden-mixing scheme, WC =      100.0
 initial mixing is a Kerker type mixing with AMIX =  0.1800 and BMIX =      0.0025
 Hartree-type preconditioning will be used
 using additional bands           32
 real space projection scheme for non local part
 use partial core corrections
 calculate Harris-corrections to forces 
   (improved forces if not selfconsistent)
 use gradient corrections 
 use of overlap-Matrix (Vanderbilt PP)
 Methfessel and Paxton  Order N= 1 SIGMA  =   0.10


--------------------------------------------------------------------------------------------------------


  energy-cutoff  :      500.00
  volume of cell :      188.47
      direct lattice vectors                 reciprocal lattice vectors
     5.733757412  0.000000000  0.000000000     0.174405704  0.000000000  0.000000000
     0.000000000  5.733757412  0.000000000     0.000000000  0.174405704  0.000000000
     0.000000000  0.000000000  5.732624219     0.000000000  0.000000000  0.174440180

  length of vectors
     5.733757412  5.733757412  5.732624219     0.174405704  0.174405704  0.174440180


 
 k-points in units of 2pi/SCALE and weight: Ni7CoMn5CrSn2                           
   0.00000000  0.00000000  0.00000000       0.000
   0.06743687  0.00000000  0.00000000       0.001
   0.13487374  0.00000000  0.00000000       0.001
   0.20231062  0.00000000  0.00000000       0.001
   0.26974749  0.00000000  0.00000000       0.001
   0.33718436  0.00000000  0.00000000       0.001
   0.40462123  0.00000000  0.00000000       0.001
   0.47205811  0.00000000  0.00000000       0.001
   0.06743687  0.06743687  0.00000000       0.001
   0.13487374  0.06743687  0.00000000       0.002
   0.20231062  0.06743687  0.00000000       0.002
   0.26974749  0.06743687  0.00000000       0.002
   0.33718436  0.06743687  0.00000000       0.002
   0.40462123  0.06743687  0.00000000       0.002
   0.47205811  0.06743687  0.00000000       0.002
   0.13487374  0.13487374  0.00000000       0.001
   0.20231062  0.13487374  0.00000000       0.002
   0.26974749  0.13487374  0.00000000       0.002
   0.33718436  0.13487374  0.00000000       0.002
   0.40462123  0.13487374  0.00000000       0.002
   0.47205811  0.13487374  0.00000000       0.002
   0.20231062  0.20231062  0.00000000       0.001
   0.26974749  0.20231062  0.00000000       0.002
   0.33718436  0.20231062  0.00000000       0.002
   0.40462123  0.20231062  0.00000000       0.002
   0.47205811  0.20231062  0.00000000       0.002
   0.26974749  0.26974749  0.00000000       0.001
   0.33718436  0.26974749  0.00000000       0.002
   0.40462123  0.26974749  0.00000000       0.002
   0.47205811  0.26974749  0.00000000       0.002
   0.33718436  0.33718436  0.00000000       0.001
   0.40462123  0.33718436  0.00000000       0.002
   0.47205811  0.33718436  0.00000000       0.002
   0.40462123  0.40462123  0.00000000       0.001
   0.47205811  0.40462123  0.00000000       0.002
   0.47205811  0.47205811  0.00000000       0.001
   0.00000000  0.00000000  0.06745020       0.001
   0.06743687  0.00000000  0.06745020       0.002
   0.13487374  0.00000000  0.06745020       0.002
   0.20231062  0.00000000  0.06745020       0.002
   0.26974749  0.00000000  0.06745020       0.002
   0.33718436  0.00000000  0.06745020       0.002
   0.40462123  0.00000000  0.06745020       0.002
   0.47205811  0.00000000  0.06745020       0.002
   0.06743687  0.06743687  0.06745020       0.002
   0.13487374  0.06743687  0.06745020       0.005
   0.20231062  0.06743687  0.06745020       0.005
   0.26974749  0.06743687  0.06745020       0.005
   0.33718436  0.06743687  0.06745020       0.005
   0.40462123  0.06743687  0.06745020       0.005
   0.47205811  0.06743687  0.06745020       0.005
   0.13487374  0.13487374  0.06745020       0.002
   0.20231062  0.13487374  0.06745020       0.005
   0.26974749  0.13487374  0.06745020       0.005
   0.33718436  0.13487374  0.06745020       0.005
   0.40462123  0.13487374  0.06745020       0.005
   0.47205811  0.13487374  0.06745020       0.005
   0.20231062  0.20231062  0.06745020       0.002
   0.26974749  0.20231062  0.06745020       0.005
   0.33718436  0.20231062  0.06745020       0.005
   0.40462123  0.20231062  0.06745020       0.005
   0.47205811  0.20231062  0.06745020       0.005
   0.26974749  0.26974749  0.06745020       0.002
   0.33718436  0.26974749  0.06745020       0.005
   0.40462123  0.26974749  0.06745020       0.005
   0.47205811  0.26974749  0.06745020       0.005
   0.33718436  0.33718436  0.06745020       0.002
   0.40462123  0.33718436  0.06745020       0.005
   0.47205811  0.33718436  0.06745020       0.005
   0.40462123  0.40462123  0.06745020       0.002
   0.47205811  0.40462123  0.06745020       0.005
   0.47205811  0.47205811  0.06745020       0.002
   0.00000000  0.00000000  0.13490041       0.001
   0.06743687  0.00000000  0.13490041       0.002
   0.13487374  0.00000000  0.13490041       0.002
   0.20231062  0.00000000  0.13490041       0.002
   0.26974749  0.00000000  0.13490041       0.002
   0.33718436  0.00000000  0.13490041       0.002
   0.40462123  0.00000000  0.13490041       0.002
   0.47205811  0.00000000  0.13490041       0.002
   0.06743687  0.06743687  0.13490041       0.002
   0.13487374  0.06743687  0.13490041       0.005
   0.20231062  0.06743687  0.13490041       0.005
   0.26974749  0.06743687  0.13490041       0.005
   0.33718436  0.06743687  0.13490041       0.005
   0.40462123  0.06743687  0.13490041       0.005
   0.47205811  0.06743687  0.13490041       0.005
   0.13487374  0.13487374  0.13490041       0.002
   0.20231062  0.13487374  0.13490041       0.005
   0.26974749  0.13487374  0.13490041       0.005
   0.33718436  0.13487374  0.13490041       0.005
   0.40462123  0.13487374  0.13490041       0.005
   0.47205811  0.13487374  0.13490041       0.005
   0.20231062  0.20231062  0.13490041       0.002
   0.26974749  0.20231062  0.13490041       0.005
   0.33718436  0.20231062  0.13490041       0.005
   0.40462123  0.20231062  0.13490041       0.005
   0.47205811  0.20231062  0.13490041       0.005
   0.26974749  0.26974749  0.13490041       0.002
   0.33718436  0.26974749  0.13490041       0.005
   0.40462123  0.26974749  0.13490041       0.005
   0.47205811  0.26974749  0.13490041       0.005
   0.33718436  0.33718436  0.13490041       0.002
   0.40462123  0.33718436  0.13490041       0.005
   0.47205811  0.33718436  0.13490041       0.005
   0.40462123  0.40462123  0.13490041       0.002
   0.47205811  0.40462123  0.13490041       0.005
   0.47205811  0.47205811  0.13490041       0.002
   0.00000000  0.00000000  0.20235061       0.001
   0.06743687  0.00000000  0.20235061       0.002
   0.13487374  0.00000000  0.20235061       0.002
   0.20231062  0.00000000  0.20235061       0.002
   0.26974749  0.00000000  0.20235061       0.002
   0.33718436  0.00000000  0.20235061       0.002
   0.40462123  0.00000000  0.20235061       0.002
   0.47205811  0.00000000  0.20235061       0.002
   0.06743687  0.06743687  0.20235061       0.002
   0.13487374  0.06743687  0.20235061       0.005
   0.20231062  0.06743687  0.20235061       0.005
   0.26974749  0.06743687  0.20235061       0.005
   0.33718436  0.06743687  0.20235061       0.005
   0.40462123  0.06743687  0.20235061       0.005
   0.47205811  0.06743687  0.20235061       0.005
   0.13487374  0.13487374  0.20235061       0.002
   0.20231062  0.13487374  0.20235061       0.005
   0.26974749  0.13487374  0.20235061       0.005
   0.33718436  0.13487374  0.20235061       0.005
   0.40462123  0.13487374  0.20235061       0.005
   0.47205811  0.13487374  0.20235061       0.005
   0.20231062  0.20231062  0.20235061       0.002
   0.26974749  0.20231062  0.20235061       0.005
   0.33718436  0.20231062  0.20235061       0.005
   0.40462123  0.20231062  0.20235061       0.005
   0.47205811  0.20231062  0.20235061       0.005
   0.26974749  0.26974749  0.20235061       0.002
   0.33718436  0.26974749  0.20235061       0.005
   0.40462123  0.26974749  0.20235061       0.005
   0.47205811  0.26974749  0.20235061       0.005
   0.33718436  0.33718436  0.20235061       0.002
   0.40462123  0.33718436  0.20235061       0.005
   0.47205811  0.33718436  0.20235061       0.005
   0.40462123  0.40462123  0.20235061       0.002
   0.47205811  0.40462123  0.20235061       0.005
   0.47205811  0.47205811  0.20235061       0.002
   0.00000000  0.00000000  0.26980081       0.001
   0.06743687  0.00000000  0.26980081       0.002
   0.13487374  0.00000000  0.26980081       0.002
   0.20231062  0.00000000  0.26980081       0.002
   0.26974749  0.00000000  0.26980081       0.002
   0.33718436  0.00000000  0.26980081       0.002
   0.40462123  0.00000000  0.26980081       0.002
   0.47205811  0.00000000  0.26980081       0.002
   0.06743687  0.06743687  0.26980081       0.002
   0.13487374  0.06743687  0.26980081       0.005
   0.20231062  0.06743687  0.26980081       0.005
   0.26974749  0.06743687  0.26980081       0.005
   0.33718436  0.06743687  0.26980081       0.005
   0.40462123  0.06743687  0.26980081       0.005
   0.47205811  0.06743687  0.26980081       0.005
   0.13487374  0.13487374  0.26980081       0.002
   0.20231062  0.13487374  0.26980081       0.005
   0.26974749  0.13487374  0.26980081       0.005
   0.33718436  0.13487374  0.26980081       0.005
   0.40462123  0.13487374  0.26980081       0.005
   0.47205811  0.13487374  0.26980081       0.005
   0.20231062  0.20231062  0.26980081       0.002
   0.26974749  0.20231062  0.26980081       0.005
   0.33718436  0.20231062  0.26980081       0.005
   0.40462123  0.20231062  0.26980081       0.005
   0.47205811  0.20231062  0.26980081       0.005
   0.26974749  0.26974749  0.26980081       0.002
   0.33718436  0.26974749  0.26980081       0.005
   0.40462123  0.26974749  0.26980081       0.005
   0.47205811  0.26974749  0.26980081       0.005
   0.33718436  0.33718436  0.26980081       0.002
   0.40462123  0.33718436  0.26980081       0.005
   0.47205811  0.33718436  0.26980081       0.005
   0.40462123  0.40462123  0.26980081       0.002
   0.47205811  0.40462123  0.26980081       0.005
   0.47205811  0.47205811  0.26980081       0.002
   0.00000000  0.00000000  0.33725101       0.001
   0.06743687  0.00000000  0.33725101       0.002
   0.13487374  0.00000000  0.33725101       0.002
   0.20231062  0.00000000  0.33725101       0.002
   0.26974749  0.00000000  0.33725101       0.002
   0.33718436  0.00000000  0.33725101       0.002
   0.40462123  0.00000000  0.33725101       0.002
   0.47205811  0.00000000  0.33725101       0.002
   0.06743687  0.06743687  0.33725101       0.002
   0.13487374  0.06743687  0.33725101       0.005
   0.20231062  0.06743687  0.33725101       0.005
   0.26974749  0.06743687  0.33725101       0.005
   0.33718436  0.06743687  0.33725101       0.005
   0.40462123  0.06743687  0.33725101       0.005
   0.47205811  0.06743687  0.33725101       0.005
   0.13487374  0.13487374  0.33725101       0.002
   0.20231062  0.13487374  0.33725101       0.005
   0.26974749  0.13487374  0.33725101       0.005
   0.33718436  0.13487374  0.33725101       0.005
   0.40462123  0.13487374  0.33725101       0.005
   0.47205811  0.13487374  0.33725101       0.005
   0.20231062  0.20231062  0.33725101       0.002
   0.26974749  0.20231062  0.33725101       0.005
   0.33718436  0.20231062  0.33725101       0.005
   0.40462123  0.20231062  0.33725101       0.005
   0.47205811  0.20231062  0.33725101       0.005
   0.26974749  0.26974749  0.33725101       0.002
   0.33718436  0.26974749  0.33725101       0.005
   0.40462123  0.26974749  0.33725101       0.005
   0.47205811  0.26974749  0.33725101       0.005
   0.33718436  0.33718436  0.33725101       0.002
   0.40462123  0.33718436  0.33725101       0.005
   0.47205811  0.33718436  0.33725101       0.005
   0.40462123  0.40462123  0.33725101       0.002
   0.47205811  0.40462123  0.33725101       0.005
   0.47205811  0.47205811  0.33725101       0.002
   0.00000000  0.00000000  0.40470122       0.001
   0.06743687  0.00000000  0.40470122       0.002
   0.13487374  0.00000000  0.40470122       0.002
   0.20231062  0.00000000  0.40470122       0.002
   0.26974749  0.00000000  0.40470122       0.002
   0.33718436  0.00000000  0.40470122       0.002
   0.40462123  0.00000000  0.40470122       0.002
   0.47205811  0.00000000  0.40470122       0.002
   0.06743687  0.06743687  0.40470122       0.002
   0.13487374  0.06743687  0.40470122       0.005
   0.20231062  0.06743687  0.40470122       0.005
   0.26974749  0.06743687  0.40470122       0.005
   0.33718436  0.06743687  0.40470122       0.005
   0.40462123  0.06743687  0.40470122       0.005
   0.47205811  0.06743687  0.40470122       0.005
   0.13487374  0.13487374  0.40470122       0.002
   0.20231062  0.13487374  0.40470122       0.005
   0.26974749  0.13487374  0.40470122       0.005
   0.33718436  0.13487374  0.40470122       0.005
   0.40462123  0.13487374  0.40470122       0.005
   0.47205811  0.13487374  0.40470122       0.005
   0.20231062  0.20231062  0.40470122       0.002
   0.26974749  0.20231062  0.40470122       0.005
   0.33718436  0.20231062  0.40470122       0.005
   0.40462123  0.20231062  0.40470122       0.005
   0.47205811  0.20231062  0.40470122       0.005
   0.26974749  0.26974749  0.40470122       0.002
   0.33718436  0.26974749  0.40470122       0.005
   0.40462123  0.26974749  0.40470122       0.005
   0.47205811  0.26974749  0.40470122       0.005
   0.33718436  0.33718436  0.40470122       0.002
   0.40462123  0.33718436  0.40470122       0.005
   0.47205811  0.33718436  0.40470122       0.005
   0.40462123  0.40462123  0.40470122       0.002
   0.47205811  0.40462123  0.40470122       0.005
   0.47205811  0.47205811  0.40470122       0.002
   0.00000000  0.00000000  0.47215142       0.001
   0.06743687  0.00000000  0.47215142       0.002
   0.13487374  0.00000000  0.47215142       0.002
   0.20231062  0.00000000  0.47215142       0.002
   0.26974749  0.00000000  0.47215142       0.002
   0.33718436  0.00000000  0.47215142       0.002
   0.40462123  0.00000000  0.47215142       0.002
   0.47205811  0.00000000  0.47215142       0.002
   0.06743687  0.06743687  0.47215142       0.002
   0.13487374  0.06743687  0.47215142       0.005
   0.20231062  0.06743687  0.47215142       0.005
   0.26974749  0.06743687  0.47215142       0.005
   0.33718436  0.06743687  0.47215142       0.005
   0.40462123  0.06743687  0.47215142       0.005
   0.47205811  0.06743687  0.47215142       0.005
   0.13487374  0.13487374  0.47215142       0.002
   0.20231062  0.13487374  0.47215142       0.005
   0.26974749  0.13487374  0.47215142       0.005
   0.33718436  0.13487374  0.47215142       0.005
   0.40462123  0.13487374  0.47215142       0.005
   0.47205811  0.13487374  0.47215142       0.005
   0.20231062  0.20231062  0.47215142       0.002
   0.26974749  0.20231062  0.47215142       0.005
   0.33718436  0.20231062  0.47215142       0.005
   0.40462123  0.20231062  0.47215142       0.005
   0.47205811  0.20231062  0.47215142       0.005
   0.26974749  0.26974749  0.47215142       0.002
   0.33718436  0.26974749  0.47215142       0.005
   0.40462123  0.26974749  0.47215142       0.005
   0.47205811  0.26974749  0.47215142       0.005
   0.33718436  0.33718436  0.47215142       0.002
   0.40462123  0.33718436  0.47215142       0.005
   0.47205811  0.33718436  0.47215142       0.005
   0.40462123  0.40462123  0.47215142       0.002
   0.47205811  0.40462123  0.47215142       0.005
   0.47205811  0.47205811  0.47215142       0.002
 
 k-points in reciprocal lattice and weights: Ni7CoMn5CrSn2                           
   0.00000000  0.00000000  0.00000000       0.000
   0.06666667  0.00000000  0.00000000       0.001
   0.13333333  0.00000000  0.00000000       0.001
   0.20000000  0.00000000  0.00000000       0.001
   0.26666667  0.00000000  0.00000000       0.001
   0.33333333  0.00000000  0.00000000       0.001
   0.40000000  0.00000000  0.00000000       0.001
   0.46666667  0.00000000  0.00000000       0.001
   0.06666667  0.06666667  0.00000000       0.001
   0.13333333  0.06666667  0.00000000       0.002
   0.20000000  0.06666667  0.00000000       0.002
   0.26666667  0.06666667  0.00000000       0.002
   0.33333333  0.06666667  0.00000000       0.002
   0.40000000  0.06666667  0.00000000       0.002
   0.46666667  0.06666667  0.00000000       0.002
   0.13333333  0.13333333  0.00000000       0.001
   0.20000000  0.13333333  0.00000000       0.002
   0.26666667  0.13333333  0.00000000       0.002
   0.33333333  0.13333333  0.00000000       0.002
   0.40000000  0.13333333  0.00000000       0.002
   0.46666667  0.13333333  0.00000000       0.002
   0.20000000  0.20000000  0.00000000       0.001
   0.26666667  0.20000000  0.00000000       0.002
   0.33333333  0.20000000  0.00000000       0.002
   0.40000000  0.20000000  0.00000000       0.002
   0.46666667  0.20000000  0.00000000       0.002
   0.26666667  0.26666667  0.00000000       0.001
   0.33333333  0.26666667  0.00000000       0.002
   0.40000000  0.26666667  0.00000000       0.002
   0.46666667  0.26666667  0.00000000       0.002
   0.33333333  0.33333333  0.00000000       0.001
   0.40000000  0.33333333  0.00000000       0.002
   0.46666667  0.33333333  0.00000000       0.002
   0.40000000  0.40000000  0.00000000       0.001
   0.46666667  0.40000000  0.00000000       0.002
   0.46666667  0.46666667  0.00000000       0.001
   0.00000000  0.00000000  0.06666667       0.001
   0.06666667  0.00000000  0.06666667       0.002
   0.13333333  0.00000000  0.06666667       0.002
   0.20000000  0.00000000  0.06666667       0.002
   0.26666667  0.00000000  0.06666667       0.002
   0.33333333  0.00000000  0.06666667       0.002
   0.40000000  0.00000000  0.06666667       0.002
   0.46666667  0.00000000  0.06666667       0.002
   0.06666667  0.06666667  0.06666667       0.002
   0.13333333  0.06666667  0.06666667       0.005
   0.20000000  0.06666667  0.06666667       0.005
   0.26666667  0.06666667  0.06666667       0.005
   0.33333333  0.06666667  0.06666667       0.005
   0.40000000  0.06666667  0.06666667       0.005
   0.46666667  0.06666667  0.06666667       0.005
   0.13333333  0.13333333  0.06666667       0.002
   0.20000000  0.13333333  0.06666667       0.005
   0.26666667  0.13333333  0.06666667       0.005
   0.33333333  0.13333333  0.06666667       0.005
   0.40000000  0.13333333  0.06666667       0.005
   0.46666667  0.13333333  0.06666667       0.005
   0.20000000  0.20000000  0.06666667       0.002
   0.26666667  0.20000000  0.06666667       0.005
   0.33333333  0.20000000  0.06666667       0.005
   0.40000000  0.20000000  0.06666667       0.005
   0.46666667  0.20000000  0.06666667       0.005
   0.26666667  0.26666667  0.06666667       0.002
   0.33333333  0.26666667  0.06666667       0.005
   0.40000000  0.26666667  0.06666667       0.005
   0.46666667  0.26666667  0.06666667       0.005
   0.33333333  0.33333333  0.06666667       0.002
   0.40000000  0.33333333  0.06666667       0.005
   0.46666667  0.33333333  0.06666667       0.005
   0.40000000  0.40000000  0.06666667       0.002
   0.46666667  0.40000000  0.06666667       0.005
   0.46666667  0.46666667  0.06666667       0.002
   0.00000000  0.00000000  0.13333333       0.001
   0.06666667  0.00000000  0.13333333       0.002
   0.13333333  0.00000000  0.13333333       0.002
   0.20000000  0.00000000  0.13333333       0.002
   0.26666667  0.00000000  0.13333333       0.002
   0.33333333  0.00000000  0.13333333       0.002
   0.40000000  0.00000000  0.13333333       0.002
   0.46666667  0.00000000  0.13333333       0.002
   0.06666667  0.06666667  0.13333333       0.002
   0.13333333  0.06666667  0.13333333       0.005
   0.20000000  0.06666667  0.13333333       0.005
   0.26666667  0.06666667  0.13333333       0.005
   0.33333333  0.06666667  0.13333333       0.005
   0.40000000  0.06666667  0.13333333       0.005
   0.46666667  0.06666667  0.13333333       0.005
   0.13333333  0.13333333  0.13333333       0.002
   0.20000000  0.13333333  0.13333333       0.005
   0.26666667  0.13333333  0.13333333       0.005
   0.33333333  0.13333333  0.13333333       0.005
   0.40000000  0.13333333  0.13333333       0.005
   0.46666667  0.13333333  0.13333333       0.005
   0.20000000  0.20000000  0.13333333       0.002
   0.26666667  0.20000000  0.13333333       0.005
   0.33333333  0.20000000  0.13333333       0.005
   0.40000000  0.20000000  0.13333333       0.005
   0.46666667  0.20000000  0.13333333       0.005
   0.26666667  0.26666667  0.13333333       0.002
[...]
    114      15.1158      0.00000
    115      15.2083      0.00000
    116      15.2089      0.00000
    117      15.2089      0.00000
    118      15.3912      0.00000
    119      15.3921      0.00000
    120      15.3921      0.00000
    121      15.6629      0.00000
    122      15.8271      0.00000
    123      15.8271      0.00000
    124      15.8279      0.00000


--------------------------------------------------------------------------------------------------------


 soft charge-density along one line, spin component           1
         0         1         2         3         4         5         6         7         8         9
 total charge-density along one line
 
 soft charge-density along one line, spin component           2
         0         1         2         3         4         5         6         7         8         9
 total charge-density along one line
 
 pseudopotential strength for first ion, spin component:           1
-44.823  -0.000   0.000   7.540   0.000  -0.000  -0.000   0.000
 -0.000 -44.823  -0.000   0.000   7.540   0.000  -0.003  -0.000
  0.000  -0.000 -44.823  -0.000   0.000   7.540   0.000  -0.003
  7.540   0.000  -0.000   5.652   0.000  -0.000   0.000  -0.000
  0.000   7.540   0.000   0.000   5.652   0.000   0.004   0.000
 -0.000   0.000   7.540  -0.000   0.000   5.652  -0.000   0.004
 -0.000  -0.003   0.000   0.000   0.004  -0.000  -2.005  -0.000
  0.000  -0.000  -0.003  -0.000   0.000   0.004  -0.000  -2.006
 -0.000   0.000   0.000   0.000  -0.000  -0.000  -0.000   0.000
 -0.003  -0.000   0.000   0.004   0.000  -0.000  -0.000   0.000
  0.000   0.000  -0.000  -0.000  -0.000   0.000   0.000   0.000
 -0.000  -0.003   0.000   0.000   0.003  -0.000  -2.521  -0.000
  0.000  -0.000  -0.003  -0.000   0.000   0.003  -0.000  -2.521
 -0.000   0.000   0.000   0.000  -0.000  -0.000  -0.000   0.000
 -0.003  -0.000   0.000   0.003   0.000  -0.000  -0.000   0.000
  0.000   0.000  -0.000  -0.000  -0.000   0.000   0.000   0.000
  0.000  -0.000   0.000   0.000  -0.000   0.000  -0.000   0.000
  0.000  -0.000   0.000   0.000  -0.000   0.000  -0.000   0.000
 pseudopotential strength for first ion, spin component:           2
-43.035  -0.000   0.000   6.787   0.000  -0.000  -0.000   0.000
 -0.000 -43.036  -0.000   0.000   6.787   0.000   0.017  -0.000
  0.000  -0.000 -43.035  -0.000   0.000   6.787   0.000   0.017
  6.787   0.000  -0.000   5.861   0.000  -0.000   0.000  -0.000
  0.000   6.787   0.000   0.000   5.861   0.000  -0.006   0.000
 -0.000   0.000   6.787  -0.000   0.000   5.861  -0.000  -0.006
 -0.000   0.017   0.000   0.000  -0.006  -0.000  -0.522  -0.000
  0.000  -0.000   0.017  -0.000   0.000  -0.006  -0.000  -0.522
 -0.000   0.000   0.000   0.000  -0.000  -0.000  -0.000  -0.000
  0.017  -0.000   0.000  -0.006   0.000  -0.000  -0.000   0.000
  0.000   0.000  -0.000  -0.000  -0.000   0.000   0.000   0.000
 -0.000   0.016   0.000   0.000  -0.006  -0.000  -1.062  -0.000
  0.000  -0.000   0.016  -0.000   0.000  -0.006  -0.000  -1.062
 -0.000   0.000   0.000   0.000  -0.000  -0.000  -0.000  -0.000
  0.016  -0.000   0.000  -0.006   0.000  -0.000  -0.000   0.000
  0.000   0.000  -0.000  -0.000  -0.000   0.000   0.000   0.000
  0.000  -0.000   0.000   0.000  -0.000   0.000  -0.000   0.000
  0.000  -0.000   0.000   0.000  -0.000   0.000  -0.000   0.000
 total augmentation occupancy for first ion, spin component:           1
  1.993   0.000  -0.000  -0.023  -0.000   0.000  -0.000  -0.000   0.000   0.004  -0.000  -0.000  -0.000   0.000  -0.005   0.000
  0.000   1.993   0.000   0.000  -0.023   0.000   0.004   0.000  -0.000   0.000  -0.000  -0.005   0.000   0.000   0.000   0.000
 -0.000   0.000   1.993   0.000   0.000  -0.023  -0.000   0.004  -0.000  -0.000   0.000  -0.000  -0.005  -0.000   0.000   0.000
 -0.023   0.000   0.000   0.191   0.000   0.000   0.000   0.000  -0.000  -0.017  -0.000   0.000  -0.000   0.000   0.023  -0.000
 -0.000  -0.023  -0.000  -0.000   0.191  -0.000  -0.017   0.000  -0.000  -0.000  -0.000   0.023  -0.000  -0.000   0.000  -0.000
  0.000  -0.000  -0.023  -0.000  -0.000   0.191  -0.000  -0.017  -0.000   0.000  -0.000   0.000   0.023  -0.000  -0.000   0.000
 -0.000   0.004   0.000  -0.000  -0.017   0.000   2.139   0.000  -0.000  -0.000  -0.000  -1.198  -0.000  -0.000   0.000   0.000
 -0.000   0.000   0.004  -0.000  -0.000  -0.017   0.000   2.140  -0.000   0.000  -0.000   0.000  -1.198  -0.000   0.000  -0.000
  0.000   0.000   0.000   0.000  -0.000  -0.000   0.000  -0.000   2.327   0.000  -0.000   0.000   0.000  -1.350   0.000   0.000
  0.004   0.000   0.000  -0.017   0.000  -0.000  -0.000  -0.000  -0.000   2.140  -0.000  -0.000   0.000   0.000  -1.198   0.000
  0.000  -0.000   0.000   0.000   0.000  -0.000   0.000   0.000   0.000   0.000   2.328   0.000   0.000   0.000  -0.000  -1.351
 -0.000  -0.005   0.000   0.000   0.023   0.000  -1.198   0.000   0.000  -0.000   0.000   1.635  -0.000   0.000  -0.000  -0.000
 -0.000  -0.000  -0.005   0.000   0.000   0.023   0.000  -1.198  -0.000  -0.000   0.000  -0.000   1.635   0.000  -0.000   0.000
  0.000   0.000   0.000  -0.000   0.000   0.000   0.000  -0.000  -1.350  -0.000   0.000   0.000   0.000   1.665   0.000   0.000
 -0.005  -0.000   0.000   0.023  -0.000   0.000  -0.000  -0.000  -0.000  -1.198   0.000   0.000   0.000   0.000   1.635   0.000
 -0.000   0.000  -0.000   0.000  -0.000  -0.000   0.000  -0.000   0.000  -0.000  -1.351   0.000   0.000  -0.000  -0.000   1.665
 -0.000  -0.000  -0.000  -0.000  -0.000  -0.000  -0.000   0.000  -0.000   0.000  -0.000   0.000   0.000   0.000  -0.000  -0.000
  0.000  -0.000  -0.000  -0.000  -0.000  -0.000  -0.000   0.000  -0.000  -0.000  -0.000  -0.000   0.000   0.000   0.000  -0.000
 total augmentation occupancy for first ion, spin component:           2
 -0.002  -0.000   0.000  -0.007   0.000  -0.000  -0.000  -0.000  -0.000   0.007  -0.000   0.000  -0.000   0.000  -0.007   0.000
 -0.000  -0.002   0.000   0.000  -0.007   0.000   0.007   0.000   0.000   0.000  -0.000  -0.007   0.000   0.000  -0.000   0.000
  0.000   0.000  -0.002  -0.000  -0.000  -0.007  -0.000   0.007  -0.000   0.000  -0.000  -0.000  -0.007   0.000   0.000   0.000
 -0.007  -0.000   0.000  -0.006   0.000  -0.000   0.000   0.000  -0.000  -0.048  -0.000  -0.000   0.000  -0.000   0.010   0.000
  0.000  -0.007   0.000   0.000  -0.006  -0.000  -0.048  -0.000  -0.000   0.000   0.000   0.010  -0.000  -0.000   0.000   0.000
 -0.000   0.000  -0.007   0.000   0.000  -0.006   0.000  -0.048   0.000   0.000  -0.000  -0.000   0.010  -0.000  -0.000   0.000
 -0.000   0.007  -0.000   0.000  -0.048   0.000   1.363  -0.000  -0.000  -0.000   0.000  -0.337  -0.000  -0.000  -0.000   0.000
  0.000   0.000   0.007  -0.000  -0.000  -0.048  -0.000   1.364  -0.000  -0.000   0.000   0.000  -0.337   0.000   0.000   0.000
 -0.000  -0.000  -0.000   0.000  -0.000   0.000  -0.000   0.000   1.722   0.000   0.000  -0.000  -0.000  -0.562  -0.000  -0.000
  0.007  -0.000   0.000  -0.048   0.000   0.000   0.000  -0.000   0.000   1.364   0.000   0.000  -0.000   0.000  -0.337   0.000
 -0.000  -0.000   0.000   0.000  -0.000  -0.000   0.000   0.000   0.000   0.000   1.723  -0.000   0.000  -0.000   0.000  -0.563
  0.000  -0.007  -0.000  -0.000   0.010  -0.000  -0.337  -0.000  -0.000  -0.000   0.000  -0.201  -0.000  -0.000  -0.000   0.000
  0.000  -0.000  -0.007   0.000   0.000   0.010  -0.000  -0.337   0.000  -0.000   0.000  -0.000  -0.201   0.000   0.000  -0.000
  0.000   0.000   0.000  -0.000   0.000  -0.000   0.000   0.000  -0.562   0.000   0.000  -0.000  -0.000  -0.066  -0.000  -0.000
 -0.007  -0.000   0.000   0.010  -0.000   0.000   0.000  -0.000   0.000  -0.337   0.000   0.000   0.000  -0.000  -0.201  -0.000
 -0.000  -0.000  -0.000   0.000   0.000  -0.000  -0.000  -0.000   0.000   0.000  -0.563   0.000   0.000  -0.000   0.000  -0.065
 -0.000  -0.000   0.000  -0.000   0.000   0.000  -0.000   0.000  -0.000   0.000   0.000  -0.000   0.000   0.000  -0.000   0.000
  0.000   0.000   0.000   0.000   0.000  -0.000  -0.000  -0.000  -0.000   0.000  -0.000  -0.000   0.000   0.000   0.000   0.000


------------------------ aborting loop because EDIFF is reached ----------------------------------------





 total charge

# of ion       s       p       d       tot
------------------------------------------
    1        0.350   6.358   6.155  12.863
    2        0.350   6.358   6.155  12.863
    3        0.350   6.358   6.155  12.863
    4        0.350   6.358   6.155  12.863
    5        0.350   6.358   6.155  12.863
    6        0.350   6.358   6.155  12.863
    7        0.350   6.358   6.155  12.863
    8        0.350   6.358   6.155  12.863
    9        0.481   6.505   7.223  14.210
   10        0.481   6.505   7.223  14.210
   11        0.481   6.505   7.223  14.210
   12        0.481   6.505   7.223  14.210
   13        0.411   0.430   0.000   0.841
   14        0.411   0.430   0.000   0.841
   15        0.411   0.430   0.000   0.841
   16        0.411   0.430   0.000   0.841
--------------------------------------------------
tot          6.363  78.606  78.134 163.104



 magnetization (x)

# of ion       s       p       d       tot
------------------------------------------
    1        0.003  -0.013   2.120   2.110
    2        0.003  -0.013   2.120   2.110
    3        0.003  -0.013   2.120   2.110
    4        0.003  -0.013   2.120   2.110
    5        0.003  -0.013   2.120   2.110
    6        0.003  -0.013   2.120   2.110
    7        0.003  -0.013   2.120   2.110
    8        0.003  -0.013   2.120   2.110
    9       -0.018  -0.046   1.835   1.771
   10       -0.018  -0.046   1.835   1.771
   11       -0.018  -0.046   1.835   1.771
   12       -0.018  -0.046   1.835   1.771
   13       -0.008  -0.033   0.000  -0.041
   14       -0.008  -0.033   0.000  -0.041
   15       -0.008  -0.033   0.000  -0.041
   16       -0.008  -0.033   0.000  -0.041
--------------------------------------------------
tot         -0.081  -0.420  24.300  23.800
 
    CHARGE:  cpu time    2.4122: real time    2.4155
    FORLOC:  cpu time    0.0040: real time    0.0044
    FORNL :  cpu time   16.6450: real time   16.6942
    STRESS:  cpu time   50.0791: real time   50.2244
    FORCOR:  cpu time    0.0360: real time    0.0368
    FORHAR:  cpu time    0.0080: real time    0.0062
    MIXING:  cpu time    0.0000: real time    0.0015
    OFIELD:  cpu time    0.0000: real time    0.0000

  FORCE on cell =-STRESS in cart. coord.  units (eV):
  Direction    XX          YY          ZZ          XY          YZ          ZX
  --------------------------------------------------------------------------------------
  Alpha Z  1106.20744  1106.20744  1106.20744
  Ewald   -7038.69161 -7038.69161 -7038.58789    -0.00000     0.00000     0.00000
  Hartree  2901.59031  2901.59031  2901.62085    -0.00000    -0.00000    -0.00000
  E(xc)   -1150.73526 -1150.73526 -1150.73486     0.00000    -0.00000    -0.00000
  Local    1035.66712  1035.66712  1035.53397    -0.00000     0.00000    -0.00000
  n-local  -279.36563  -280.28873  -279.82157    -1.00494    -1.48436    -0.52855
  augment  1720.54730  1720.54730  1720.54315     0.00000     0.00004     0.00004
  Kinetic  1703.31749  1706.79475  1705.05103    -1.77681    -2.19449    -1.37391
  Fock        0.00000     0.00000     0.00000     0.00000     0.00000     0.00000
  -------------------------------------------------------------------------------------
  Total      -0.18576    -0.18576    -0.18788     0.00000     0.00000     0.00000
  in kB      -1.57919    -1.57919    -1.59717     0.00000     0.00000     0.00000
  external pressure =       -1.59 kB  Pullay stress =        0.00 kB


 VOLUME and BASIS-vectors are now :
 -----------------------------------------------------------------------------
  energy-cutoff  :      500.00
  volume of cell :      188.47
      direct lattice vectors                 reciprocal lattice vectors
     5.733757412  0.000000000  0.000000000     0.174405704  0.000000000  0.000000000
     0.000000000  5.733757412  0.000000000     0.000000000  0.174405704  0.000000000
     0.000000000  0.000000000  5.732624219     0.000000000  0.000000000  0.174440180

  length of vectors
     5.733757412  5.733757412  5.732624219     0.174405704  0.174405704  0.174440180


 FORCES acting on ions
    electron-ion (+dipol)            ewald-force                    non-local-force                 convergence-correction
 -----------------------------------------------------------------------------------------------
   0.640E-12 0.418E-11 -.319E-11   0.568E-13 -.711E-14 -.924E-13   -.477E-17 -.304E-17 -.347E-17   -.791E-12 -.103E-11 -.351E-12
   0.104E-11 -.114E-11 0.236E-12   0.639E-13 0.711E-14 -.853E-13   0.304E-17 -.369E-17 0.130E-17   -.647E-12 0.103E-11 0.324E-12
   0.256E-11 0.843E-11 0.383E-11   0.639E-13 0.711E-14 -.853E-13   0.390E-17 -.737E-17 0.867E-18   0.291E-12 0.109E-11 0.241E-12
   0.232E-11 0.102E-10 0.151E-10   0.853E-13 -.711E-14 -.924E-13   -.477E-17 -.217E-17 -.173E-17   0.419E-12 -.964E-12 -.430E-12
   0.112E-11 0.788E-12 0.216E-11   0.355E-13 0.711E-14 -.853E-13   0.304E-17 -.694E-17 -.867E-18   -.701E-12 0.107E-11 0.874E-12
   0.240E-11 0.195E-10 0.584E-11   0.568E-13 -.711E-14 -.853E-13   0.217E-17 0.434E-18 0.694E-17   0.381E-12 -.107E-11 0.304E-12
   0.719E-12 0.159E-11 -.103E-11   0.568E-13 -.711E-14 -.853E-13   0.564E-17 -.434E-18 0.520E-17   -.721E-12 -.108E-11 0.298E-12
   0.272E-11 0.129E-10 0.828E-11   0.639E-13 0.711E-14 -.853E-13   -.434E-18 -.889E-17 -.217E-17   0.306E-12 0.116E-11 0.899E-12
   0.215E-11 -.146E-12 -.370E-10   -.158E-12 0.241E-13 0.107E-12   -.310E-24 0.207E-24 0.000E+00   -.303E-12 -.276E-12 0.346E-12
   -.267E-13 0.202E-11 -.232E-12   -.126E-12 -.169E-13 0.107E-12   0.207E-24 0.517E-24 0.000E+00   0.657E-13 -.358E-12 0.343E-12
   -.261E-13 -.148E-12 0.154E-11   -.125E-12 -.349E-13 0.179E-12   -.310E-24 0.207E-24 0.207E-24   0.135E-12 -.169E-12 0.207E-12
   0.214E-11 0.141E-10 -.128E-10   -.130E-12 0.378E-13 0.235E-12   0.207E-24 0.207E-24 0.155E-24   -.348E-12 -.412E-12 0.283E-12
   -.263E-13 -.467E-13 0.887E-12   0.689E-15 -.385E-14 0.474E-15   0.000E+00 0.000E+00 0.388E-25   -.362E-13 0.273E-13 0.439E-14
   -.504E-13 -.609E-14 -.161E-14   -.895E-14 -.199E-14 0.758E-14   0.258E-25 0.000E+00 -.181E-24   0.588E-13 -.740E-14 0.346E-14
   -.257E-13 0.469E-12 -.333E-11   0.151E-14 0.541E-14 -.858E-14   0.000E+00 0.000E+00 0.000E+00   -.399E-13 -.704E-14 -.136E-13
   -.507E-13 -.435E-13 0.384E-13   -.103E-14 -.110E-13 0.563E-14   -.129E-25 0.000E+00 -.517E-25   0.544E-13 0.259E-13 -.132E-13
 -----------------------------------------------------------------------------------------------
   0.176E-10 0.726E-10 -.197E-10   -.621E-13 -.129E-14 -.626E-13   0.781E-17 -.321E-16 0.607E-17   -.188E-11 -.955E-12 0.332E-11
 
 
 POSITION                                       TOTAL-FORCE (eV/Angst)
 -----------------------------------------------------------------------------------
      1.43344      1.43344      1.43316        -0.000000      0.000000      0.000000
      1.43344      4.30032      1.43316         0.000000     -0.000000      0.000000
      4.30032      1.43344      1.43316        -0.000000      0.000000      0.000000
      4.30032      4.30032      1.43316         0.000000     -0.000000      0.000000
      1.43344      1.43344      4.29947        -0.000000     -0.000000     -0.000000
      4.30032      1.43344      4.29947         0.000000      0.000000     -0.000000
      1.43344      4.30032      4.29947         0.000000     -0.000000     -0.000000
      4.30032      4.30032      4.29947        -0.000000     -0.000000     -0.000000
      2.86688      0.00000      0.00000        -0.000000      0.000000      0.000000
      0.00000      2.86688      0.00000         0.000000     -0.000000     -0.000000
      0.00000      0.00000      2.86631        -0.000000      0.000000     -0.000000
      2.86688      2.86688      2.86631        -0.000000     -0.000000     -0.000000
      2.86688      0.00000      2.86631        -0.000000     -0.000000      0.000000
      0.00000      2.86688      2.86631        -0.000000     -0.000000      0.000000
      2.86688      2.86688      0.00000        -0.000000     -0.000000      0.000000
      0.00000      0.00000      0.00000        -0.000000     -0.000000      0.000000
 -----------------------------------------------------------------------------------
    total drift:                                0.000000      0.000000     -0.000000


--------------------------------------------------------------------------------------------------------



  FREE ENERGIE OF THE ION-ELECTRON SYSTEM (eV)
  ---------------------------------------------------
  free  energy   TOTEN  =      -111.56917992 eV

  energy  without entropy=     -111.56710795  energy(sigma->0) =     -111.56848926
 


--------------------------------------------------------------------------------------------------------


    POTLOK:  cpu time    0.0960: real time    0.0959


--------------------------------------------------------------------------------------------------------


     LOOP+:  cpu time 1637.6223: real time 1642.7551
    4ORBIT:  cpu time    0.0000: real time    0.0000



 total charge

# of ion       s       p       d       tot
------------------------------------------
    1        0.350   6.358   6.155  12.863
    2        0.350   6.358   6.155  12.863
    3        0.350   6.358   6.155  12.863
    4        0.350   6.358   6.155  12.863
    5        0.350   6.358   6.155  12.863
    6        0.350   6.358   6.155  12.863
    7        0.350   6.358   6.155  12.863
    8        0.350   6.358   6.155  12.863
    9        0.481   6.505   7.223  14.210
   10        0.481   6.505   7.223  14.210
   11        0.481   6.505   7.223  14.210
   12        0.481   6.505   7.223  14.210
   13        0.411   0.430   0.000   0.841
   14        0.411   0.430   0.000   0.841
   15        0.411   0.430   0.000   0.841
   16        0.411   0.430   0.000   0.841
--------------------------------------------------
tot          6.363  78.606  78.134 163.104



 magnetization (x)

# of ion       s       p       d       tot
------------------------------------------
    1        0.003  -0.013   2.120   2.110
    2        0.003  -0.013   2.120   2.110
    3        0.003  -0.013   2.120   2.110
    4        0.003  -0.013   2.120   2.110
    5        0.003  -0.013   2.120   2.110
    6        0.003  -0.013   2.120   2.110
    7        0.003  -0.013   2.120   2.110
    8        0.003  -0.013   2.120   2.110
    9       -0.018  -0.046   1.835   1.771
   10       -0.018  -0.046   1.835   1.771
   11       -0.018  -0.046   1.835   1.771
   12       -0.018  -0.046   1.835   1.771
   13       -0.008  -0.033   0.000  -0.041
   14       -0.008  -0.033   0.000  -0.041
   15       -0.008  -0.033   0.000  -0.041
   16       -0.008  -0.033   0.000  -0.041
--------------------------------------------------
tot         -0.081  -0.420  24.300  23.800
 

 total amount of memory used by VASP MPI-rank0   286681. kBytes
=======================================================================

   base      :      30000. kBytes
   nonlr-proj:       3323. kBytes
   fftplans  :       4038. kBytes
   grid      :       3529. kBytes
   one-center:         93. kBytes
   wavefun   :     245698. kBytes
 
  
  
 General timing and accounting informations for this job:
 ========================================================
  
                  Total CPU time used (sec):     1672.685
                            User time (sec):     1663.152
                          System time (sec):        9.533
                         Elapsed time (sec):     1678.592
  
                   Maximum memory used (kb):      343300.
                   Average memory used (kb):          N/A
  
                          Minor page faults:        86808
                          Major page faults:            0
                 Voluntary context switches:         3217
