 vasp.6.2.0 18Jan21 (build Feb 24 2021 14:57:03) complex                        
  
 executed on             LinuxIFC date 2023.06.13  20:51:50
 running on   20 total cores
 distrk:  each k-point on   20 cores,    1 groups
 distr:  one band on NCORE=   4 cores,    5 groups


--------------------------------------------------------------------------------------------------------


 INCAR:
   SYSTEM = NiCoMnGa
   LCHARG = .TRUE.
   LWAVE = .FALSE.
   ICHARG = 2
   IBRION = 2
   ISIF = 3
   PREC = Accurate
   ENCUT = 500
   LREAL = A
   POTIM = 0.001
   EDIFF = 1e-6
   ISMEAR = 1
   SIGMA = 0.1
   ISPIN = 2
   LORBIT = 10
   ISYM = 2
   RWIGS = 8*1.164 4*1.302 4*1.217
   MAGMOM = 8*2.3 4*1.2 4*0
   NSW = 0
   NEDOS = 1500
   GGA_COMPAT = .TRUE.
   LMAXMIX = 6
   NELMDL = -6
   NELM = 160
   ADDGRID = .TRUE.
   NPAR = 6
   NCORE = 4
   AMIX = 0.18
   AMIX_MAG = 0.26
   BMIX = 0.0025
   BMIX_MAG = 0.005
   EDIFFG = -1E-3

 POTCAR:    PAW_PBE Fe_pv 02Aug2007               
 POTCAR:    PAW_PBE Co_pv 23Apr2009               
 POTCAR:     PAW_PBE Ga_d 06Jul2010               
 -----------------------------------------------------------------------------
|                                                                             |
|           W    W    AA    RRRRR   N    N  II  N    N   GGGG   !!!           |
|           W    W   A  A   R    R  NN   N  II  NN   N  G    G  !!!           |
|           W    W  A    A  R    R  N N  N  II  N N  N  G       !!!           |
|           W WW W  AAAAAA  RRRRR   N  N N  II  N  N N  G  GGG   !            |
|           WW  WW  A    A  R   R   N   NN  II  N   NN  G    G                |
|           W    W  A    A  R    R  N    N  II  N    N   GGGG   !!!           |
|                                                                             |
|     The value NPAR = 6 specified in the INCAR file was overwritten,         |
|     because it was not compatible with the 20 processes available:          |
|     NPAR = 5                                                                |
|     was used instead, please check that this makes sense for your           |
|     machine.                                                                |
|                                                                             |
 -----------------------------------------------------------------------------

 POTCAR:    PAW_PBE Fe_pv 02Aug2007               
   VRHFIN =Fe:  3pd7s1                                                                              
   LEXCH  = PE                                                                                      
   EATOM  =  2457.4239 eV,  180.6156 Ry                                                             
                                                                                                    
   TITEL  = PAW_PBE Fe_pv 02Aug2007                                                                 
   LULTRA =        F    use ultrasoft PP ?                                                          
   IUNSCR =        1    unscreen: 0-lin 1-nonlin 2-no                                               
   RPACOR =    1.750    partial core radius                                                         
   POMASS =   55.847; ZVAL   =   14.000    mass and valenz                                          
   RCORE  =    2.200    outmost cutoff radius                                                       
   RWIGS  =    2.200; RWIGS  =    1.164    wigner-seitz radius (au A)                               
   ENMAX  =  293.238; ENMIN  =  219.928 eV                                                          
   ICORE  =        3    local potential                                                             
   LCOR   =        T    correct aug charges                                                         
   LPAW   =        T    paw PP                                                                      
   EAUG   =  578.342                                                                                
   DEXC   =    0.000                                                                                
   RMAX   =    2.249    core radius for proj-oper                                                   
   RAUG   =    1.300    factor for augmentation sphere                                              
   RDEP   =    2.296    radius for radial grids                                                     
   RDEPT  =    1.766    core radius for aug-charge                                                  
                                                                                                    
   Atomic configuration                                                                             
    8 entries                                                                                       
     n  l   j            E        occ.                                                              
     1  0  0.50     -6993.8440   2.0000                                                             
     2  0  0.50      -814.6047   2.0000                                                             
     2  1  1.50      -693.3689   6.0000                                                             
     3  0  0.50       -89.4732   2.0000                                                             
     3  1  1.50       -55.6373   6.0000                                                             
     3  2  2.50        -3.8151   7.0000                                                             
     4  0  0.50        -4.2551   1.0000                                                             
     4  3  2.50        -1.3606   0.0000                                                             
   Description                                                                                      
     l       E           TYP  RCUT    TYP  RCUT                                                     
     1    -55.6372668     23  2.000                                                                 
     1     -5.4423304     23  2.000                                                                 
     2     -3.8151096     23  2.200                                                                 
     2     -5.1756922     23  2.200                                                                 
     0     -4.2550951     23  2.200                                                                 
     0     27.2116520     23  2.200                                                                 
     3     -1.3605826     23  2.200                                                                 
  local pseudopotential read in
  partial core-charges read in
  partial kinetic energy density read in
  atomic valenz-charges read in
  non local Contribution for L=           1  read in
    real space projection operators read in
  non local Contribution for L=           1  read in
    real space projection operators read in
  non local Contribution for L=           2  read in
    real space projection operators read in
  non local Contribution for L=           2  read in
    real space projection operators read in
  non local Contribution for L=           0  read in
    real space projection operators read in
  non local Contribution for L=           0  read in
    real space projection operators read in
    PAW grid and wavefunctions read in
 
   number of l-projection  operators is LMAX  =           6
   number of lm-projection operators is LMMAX =          18
 
 POTCAR:    PAW_PBE Co_pv 23Apr2009               
   VRHFIN =Co: 3pd7s1                                                                               
   LEXCH  = PE                                                                                      
   EATOM  =  2948.1334 eV,  216.6817 Ry                                                             
                                                                                                    
   TITEL  = PAW_PBE Co_pv 23Apr2009                                                                 
   LULTRA =        F    use ultrasoft PP ?                                                          
   IUNSCR =        1    unscreen: 0-lin 1-nonlin 2-no                                               
   RPACOR =    2.000    partial core radius                                                         
   POMASS =   58.933; ZVAL   =   15.000    mass and valenz                                          
   RCORE  =    2.300    outmost cutoff radius                                                       
   RWIGS  =    2.460; RWIGS  =    1.302    wigner-seitz radius (au A)                               
   ENMAX  =  271.042; ENMIN  =  203.281 eV                                                          
   ICORE  =        3    local potential                                                             
   LCOR   =        T    correct aug charges                                                         
   LPAW   =        T    paw PP                                                                      
   EAUG   =  543.066                                                                                
   DEXC   =    0.000                                                                                
   RMAX   =    2.360    core radius for proj-oper                                                   
   RAUG   =    1.300    factor for augmentation sphere                                              
   RDEP   =    2.393    radius for radial grids                                                     
   RDEPT  =    1.841    core radius for aug-charge                                                  
                                                                                                    
   Atomic configuration                                                                             
    8 entries                                                                                       
     n  l   j            E        occ.                                                              
     1  0  0.50     -7587.6674   2.0000                                                             
     2  0  0.50      -893.6084   2.0000                                                             
     2  1  1.50      -764.5805   6.0000                                                             
     3  0  0.50       -97.5973   2.0000                                                             
     3  1  1.50       -60.9648   6.0000                                                             
     3  2  2.50        -4.2382   8.0000                                                             
     4  0  0.50        -4.3746   1.0000                                                             
     4  3  2.50        -1.3606   0.0000                                                             
   Description                                                                                      
     l       E           TYP  RCUT    TYP  RCUT                                                     
     1    -60.9647990     23  2.000                                                                 
     1     -5.4423304     23  2.000                                                                 
     2     -4.2382362     23  2.300                                                                 
     2     -5.5988188     23  2.300                                                                 
     0     -4.3745797     23  2.300                                                                 
     0      5.7660125     23  2.300                                                                 
     3     -1.3605826     23  2.300                                                                 
  local pseudopotential read in
  partial core-charges read in
  partial kinetic energy density read in
  atomic valenz-charges read in
  non local Contribution for L=           1  read in
    real space projection operators read in
  non local Contribution for L=           1  read in
    real space projection operators read in
  non local Contribution for L=           2  read in
    real space projection operators read in
  non local Contribution for L=           2  read in
    real space projection operators read in
  non local Contribution for L=           0  read in
    real space projection operators read in
  non local Contribution for L=           0  read in
    real space projection operators read in
    PAW grid and wavefunctions read in
 
   number of l-projection  operators is LMAX  =           6
   number of lm-projection operators is LMMAX =          18
 
 POTCAR:     PAW_PBE Ga_d 06Jul2010               
   VRHFIN =Ga: s2p1                                                                                 
   LEXCH  = PE                                                                                      
   EATOM  =  2148.8298 eV,  157.9345 Ry                                                             
                                                                                                    
   TITEL  = PAW_PBE Ga_d 06Jul2010                                                                  
   LULTRA =        F    use ultrasoft PP ?                                                          
   IUNSCR =        1    unscreen: 0-lin 1-nonlin 2-no                                               
   RPACOR =    1.700    partial core radius                                                         
   POMASS =   69.723; ZVAL   =   13.000    mass and valenz                                          
   RCORE  =    2.300    outmost cutoff radius                                                       
   RWIGS  =    2.300; RWIGS  =    1.217    wigner-seitz radius (au A)                               
   ENMAX  =  282.691; ENMIN  =  212.018 eV                                                          
   ICORE  =        3    local potential                                                             
   LCOR   =        T    correct aug charges                                                         
   LPAW   =        T    paw PP                                                                      
   EAUG   =  490.690                                                                                
   DEXC   =    0.000                                                                                
   RMAX   =    2.341    core radius for proj-oper                                                   
   RAUG   =    1.300    factor for augmentation sphere                                              
   RDEP   =    2.413    radius for radial grids                                                     
   RDEPT  =    1.856    core radius for aug-charge                                                  
                                                                                                    
   Atomic configuration                                                                             
    9 entries                                                                                       
     n  l   j            E        occ.                                                              
     1  0  0.50    -10228.7831   2.0000                                                             
     2  0  0.50     -1262.1604   2.0000                                                             
     2  1  1.50     -1098.6333   6.0000                                                             
     3  0  0.50      -148.1110   2.0000                                                             
     3  1  1.50       -98.8436   6.0000                                                             
     3  2  2.50       -19.1549  10.0000                                                             
     4  0  0.50        -8.9483   2.0000                                                             
     4  1  0.50        -2.5791   1.0000                                                             
     4  3  2.50        -2.7416   0.0000                                                             
   Description                                                                                      
     l       E           TYP  RCUT    TYP  RCUT                                                     
     2    -19.1549037     23  2.300                                                                 
     2     -5.4423304     23  2.300                                                                 
     0     -8.9483111     23  2.300                                                                 
     0     68.0291300     23  2.300                                                                 
     1     -2.5790802     23  2.100                                                                 
     1     81.6349560     23  2.300                                                                 
     3      6.8029130     23  2.300                                                                 
  local pseudopotential read in
  partial core-charges read in
  partial kinetic energy density read in
  atomic valenz-charges read in
  non local Contribution for L=           2  read in
    real space projection operators read in
  non local Contribution for L=           2  read in
    real space projection operators read in
  non local Contribution for L=           0  read in
    real space projection operators read in
  non local Contribution for L=           0  read in
    real space projection operators read in
  non local Contribution for L=           1  read in
    real space projection operators read in
  non local Contribution for L=           1  read in
    real space projection operators read in
    PAW grid and wavefunctions read in
 
   number of l-projection  operators is LMAX  =           6
   number of lm-projection operators is LMMAX =          18
 
 Optimization of the real space projectors (new method)

 maximal supplied QI-value         = 17.01
 optimisation between [QCUT,QGAM] = [ 11.40, 22.79] = [ 36.36,145.44] Ry 
 Optimized for a Real-space Cutoff    1.47 Angstroem

   l    n(q)    QCUT    max X(q) W(low)/X(q) W(high)/X(q)  e(spline) 
   1     10    11.395     4.267    0.90E-04    0.11E-03    0.18E-06
   1     10    11.395     5.750    0.14E-03    0.15E-03    0.25E-06
   2      9    11.395    53.656    0.13E-03    0.36E-04    0.15E-06
   2      9    11.395    49.521    0.14E-03    0.36E-04    0.15E-06
   0     10    11.395    31.246    0.58E-04    0.17E-05    0.98E-07
   0     10    11.395    12.201    0.41E-04    0.11E-05    0.82E-07
 Optimization of the real space projectors (new method)

 maximal supplied QI-value         = 16.25
 optimisation between [QCUT,QGAM] = [ 11.38, 22.75] = [ 36.24,144.96] Ry 
 Optimized for a Real-space Cutoff    1.47 Angstroem

   l    n(q)    QCUT    max X(q) W(low)/X(q) W(high)/X(q)  e(spline) 
   1     10    11.376     4.946    0.88E-04    0.16E-03    0.15E-06
   1     10    11.376     5.991    0.13E-03    0.24E-03    0.21E-06
   2      9    11.376    46.947    0.87E-04    0.91E-04    0.20E-06
   2      9    11.376    42.928    0.91E-04    0.94E-04    0.20E-06
   0     10    11.376    68.324    0.58E-04    0.21E-04    0.82E-07
   0     10    11.376    36.926    0.52E-04    0.19E-04    0.78E-07
 Optimization of the real space projectors (new method)

 maximal supplied QI-value         = 16.25
 optimisation between [QCUT,QGAM] = [ 11.38, 22.75] = [ 36.24,144.96] Ry 
 Optimized for a Real-space Cutoff    1.43 Angstroem

   l    n(q)    QCUT    max X(q) W(low)/X(q) W(high)/X(q)  e(spline) 
   2      9    11.376     7.143    0.28E-04    0.12E-03    0.13E-06
   2      9    11.376     5.586    0.74E-04    0.22E-03    0.21E-06
   0     10    11.376    12.382    0.35E-04    0.14E-04    0.32E-07
   0     10    11.376     6.622    0.55E-04    0.29E-04    0.68E-07
   1      9    11.376     7.935    0.24E-03    0.22E-03    0.14E-06
   1      9    11.376     2.425    0.20E-03    0.19E-03    0.14E-06
  PAW_PBE Fe_pv 02Aug2007               :
 energy of atom  1       EATOM=-2457.4239
 kinetic energy error for atom=    0.0069 (will be added to EATOM!!)
  PAW_PBE Co_pv 23Apr2009               :
 energy of atom  2       EATOM=-2948.1334
 kinetic energy error for atom=    0.0060 (will be added to EATOM!!)
   PAW_PBE Ga_d 06Jul2010               :
 energy of atom  3       EATOM=-2148.8298
 kinetic energy error for atom=    0.0026 (will be added to EATOM!!)
 
 
 POSCAR: Heusler tetragonGa
  positions in direct lattice
  velocities in cartesian coordinates
 exchange correlation table for  LEXCH =        8
   RHO(1)=    0.500       N(1)  =     2000
   RHO(2)=  100.500       N(2)  =     4000
 


--------------------------------------------------------------------------------------------------------


 ion  position               nearest neighbor table
   1  0.000  0.500  0.500-   5 2.48   6 2.48   7 2.48   8 2.48  13 2.51  14 2.51  15 2.51  16 2.51

   2  0.000  0.000  0.500-   5 2.48   6 2.48   7 2.48   8 2.48  13 2.51  14 2.51  15 2.51  16 2.51

   3  0.500  0.500  0.500-   5 2.48   6 2.48   7 2.48   8 2.48  13 2.51  14 2.51  15 2.51  16 2.51

   4  0.500  0.000  0.500-   5 2.48   6 2.48   7 2.48   8 2.48  13 2.51  14 2.51  15 2.51  16 2.51

   5  0.250  0.750  0.251-   1 2.48   2 2.48   3 2.48   4 2.48   9 2.49  10 2.49  11 2.49  12 2.49

   6  0.750  0.250  0.251-   1 2.48   2 2.48   3 2.48   4 2.48   9 2.49  10 2.49  11 2.49  12 2.49

   7  0.250  0.250  0.749-   1 2.48   2 2.48   3 2.48   4 2.48   9 2.49  10 2.49  11 2.49  12 2.49

   8  0.750  0.750  0.749-   1 2.48   2 2.48   3 2.48   4 2.48   9 2.49  10 2.49  11 2.49  12 2.49

   9  0.500  0.500  0.000-  13 2.46  14 2.46  15 2.46  16 2.46   5 2.49   6 2.49   7 2.49   8 2.49

  10  0.000  0.000  0.000-  13 2.46  14 2.46  15 2.46  16 2.46   5 2.49   6 2.49   7 2.49   8 2.49

  11  0.500  0.000  0.000-  13 2.46  14 2.46  15 2.46  16 2.46   5 2.49   6 2.49   7 2.49   8 2.49

  12  0.000  0.500  0.000-  13 2.46  14 2.46  15 2.46  16 2.46   5 2.49   6 2.49   7 2.49   8 2.49

  13  0.250  0.250  0.243-   9 2.46  10 2.46  11 2.46  12 2.46   1 2.51   2 2.51   3 2.51   4 2.51

  14  0.250  0.750  0.757-   9 2.46  10 2.46  11 2.46  12 2.46   1 2.51   2 2.51   3 2.51   4 2.51

  15  0.750  0.750  0.243-   9 2.46  10 2.46  11 2.46  12 2.46   1 2.51   2 2.51   3 2.51   4 2.51

  16  0.750  0.250  0.757-   9 2.46  10 2.46  11 2.46  12 2.46   1 2.51   2 2.51   3 2.51   4 2.51

 
  LATTYP: Found a simple tetragonal cell.
 ALAT       =     5.6788275109
 C/A-ratio  =     1.0297456014
  
  Lattice vectors:
  
 A1 = (   5.6788275109,   0.0000000000,   0.0000000000)
 A2 = (   0.0000000000,   5.6788275109,   0.0000000000)
 A3 = (   0.0000000000,   0.0000000000,   5.8477476504)


Analysis of symmetry for initial positions (statically):
=====================================================================
 Subroutine PRICEL returns following result:
 
  LATTYP: Found a simple tetragonal cell.
 ALAT       =     4.0155374421
 C/A-ratio  =     1.4562801953
  
  Lattice vectors:
  
 A1 = (   2.8394137555,  -2.8394137555,   0.0000000000)
 A2 = (   2.8394137555,   2.8394137555,   0.0000000000)
 A3 = (   0.0000000000,   0.0000000000,   5.8477476504)
 
   2 primitive cells build up your supercell.
 

 Routine SETGRP: Setting up the symmetry group for a 
 simple tetragonal supercell.


 Subroutine GETGRP returns: Found 16 space group operations
 (whereof  8 operations were pure point group operations)
 out of a pool of 16 trial point group operations.


The static configuration has the point symmetry D_2d.
 The point group associated with its full space group is D_4h.


Analysis of symmetry for dynamics (positions and initial velocities):
=====================================================================
 Subroutine PRICEL returns following result:
 
  LATTYP: Found a simple tetragonal cell.
 ALAT       =     4.0155374421
 C/A-ratio  =     1.4562801953
  
  Lattice vectors:
  
 A1 = (   2.8394137555,  -2.8394137555,   0.0000000000)
 A2 = (   2.8394137555,   2.8394137555,   0.0000000000)
 A3 = (   0.0000000000,   0.0000000000,   5.8477476504)
 
   2 primitive cells build up your supercell.
 

 Routine SETGRP: Setting up the symmetry group for a 
 simple tetragonal supercell.


 Subroutine GETGRP returns: Found 16 space group operations
 (whereof  8 operations were pure point group operations)
 out of a pool of 16 trial point group operations.


The dynamic configuration has the point symmetry D_2d.
 The point group associated with its full space group is D_4h.


Analysis of structural, dynamic, and magnetic symmetry:
=====================================================================
 Subroutine PRICEL returns following result:
 
  LATTYP: Found a simple tetragonal cell.
 ALAT       =     4.0155374421
 C/A-ratio  =     1.4562801953
  
  Lattice vectors:
  
 A1 = (   2.8394137555,  -2.8394137555,   0.0000000000)
 A2 = (   2.8394137555,   2.8394137555,   0.0000000000)
 A3 = (   0.0000000000,   0.0000000000,   5.8477476504)
 
   2 primitive cells build up your supercell.
 

 Routine SETGRP: Setting up the symmetry group for a 
 simple tetragonal supercell.


 Subroutine GETGRP returns: Found 16 space group operations
 (whereof  8 operations were pure point group operations)
 out of a pool of 16 trial point group operations.


The overall configuration has the point symmetry D_2d.
 The point group associated with its full space group is D_4h.


 Subroutine INISYM returns: Found 16 space group operations
 (whereof  8 operations are pure point group operations),
 and found     2 'primitive' translations


----------------------------------------------------------------------------------------

                                     Primitive cell                                     

  volume of cell :      94.2922

  direct lattice vectors                    reciprocal lattice vectors
     2.839413755 -2.839413755  0.000000000     0.176092688 -0.176092688  0.000000000
     2.839413755  2.839413755  0.000000000     0.176092688  0.176092688  0.000000000
     0.000000000  0.000000000  5.847747650     0.000000000  0.000000000  0.171006011

  length of vectors
     4.015537442  4.015537442  5.847747650     0.249032667  0.249032667  0.171006011

  position of ions in fractional coordinates (direct lattice)
     0.500000000  0.500000000  0.500000000
     0.000000000  0.000000000  0.500000000
     0.500000000  0.000000000  0.250916305
     0.000000000  0.500000000  0.749083695
     0.000000000  0.000000000  0.000000000
     0.500000000  0.500000000  0.000000000
     0.000000000  0.500000000  0.243289064
     0.500000000  0.000000000  0.756710936

  ion indices of the primitive-cell ions
   primitive index   ion index
                 1           1
                 2           2
                 3           5
                 4           7
                 5           9
                 6          12
                 7          13
                 8          14

----------------------------------------------------------------------------------------

 
 
 KPOINTS: Ni7CoMn5CrSn2                           

Automatic generation of k-mesh.
 Grid dimensions read from file:
 generate k-points for:   15   15   15

 Generating k-lattice:

  Cartesian coordinates                     Fractional coordinates (reciprocal lattice)
     0.011739513  0.000000000  0.000000000     0.066666667  0.000000000  0.000000000
     0.000000000  0.011739513  0.000000000     0.000000000  0.066666667  0.000000000
     0.000000000  0.000000000  0.011400401     0.000000000  0.000000000  0.066666667

  Length of vectors
     0.011739513  0.011739513  0.011400401

  Shift w.r.t. Gamma in fractional coordinates (k-lattice)
     0.000000000  0.000000000  0.000000000

 
 Subroutine IBZKPT returns following result:
 ===========================================
 
 Found    288 irreducible k-points:
 
 Following reciprocal coordinates:
            Coordinates               Weight
  0.000000  0.000000  0.000000      1.000000
  0.066667  0.000000  0.000000      4.000000
  0.133333  0.000000  0.000000      4.000000
  0.200000  0.000000  0.000000      4.000000
  0.266667  0.000000  0.000000      4.000000
  0.333333  0.000000  0.000000      4.000000
  0.400000  0.000000  0.000000      4.000000
  0.466667  0.000000  0.000000      4.000000
  0.066667  0.066667  0.000000      4.000000
  0.133333  0.066667  0.000000      8.000000
  0.200000  0.066667  0.000000      8.000000
  0.266667  0.066667  0.000000      8.000000
  0.333333  0.066667  0.000000      8.000000
  0.400000  0.066667  0.000000      8.000000
  0.466667  0.066667  0.000000      8.000000
  0.133333  0.133333  0.000000      4.000000
  0.200000  0.133333  0.000000      8.000000
  0.266667  0.133333  0.000000      8.000000
  0.333333  0.133333  0.000000      8.000000
  0.400000  0.133333  0.000000      8.000000
  0.466667  0.133333  0.000000      8.000000
  0.200000  0.200000  0.000000      4.000000
  0.266667  0.200000  0.000000      8.000000
  0.333333  0.200000  0.000000      8.000000
  0.400000  0.200000  0.000000      8.000000
  0.466667  0.200000  0.000000      8.000000
  0.266667  0.266667  0.000000      4.000000
  0.333333  0.266667  0.000000      8.000000
  0.400000  0.266667  0.000000      8.000000
  0.466667  0.266667  0.000000      8.000000
  0.333333  0.333333  0.000000      4.000000
  0.400000  0.333333  0.000000      8.000000
  0.466667  0.333333  0.000000      8.000000
  0.400000  0.400000  0.000000      4.000000
  0.466667  0.400000  0.000000      8.000000
  0.466667  0.466667  0.000000      4.000000
  0.000000  0.000000  0.066667      2.000000
  0.066667  0.000000  0.066667      8.000000
  0.133333  0.000000  0.066667      8.000000
  0.200000  0.000000  0.066667      8.000000
  0.266667  0.000000  0.066667      8.000000
  0.333333  0.000000  0.066667      8.000000
  0.400000  0.000000  0.066667      8.000000
  0.466667  0.000000  0.066667      8.000000
  0.066667  0.066667  0.066667      8.000000
  0.133333  0.066667  0.066667     16.000000
  0.200000  0.066667  0.066667     16.000000
  0.266667  0.066667  0.066667     16.000000
  0.333333  0.066667  0.066667     16.000000
  0.400000  0.066667  0.066667     16.000000
  0.466667  0.066667  0.066667     16.000000
  0.133333  0.133333  0.066667      8.000000
  0.200000  0.133333  0.066667     16.000000
  0.266667  0.133333  0.066667     16.000000
  0.333333  0.133333  0.066667     16.000000
  0.400000  0.133333  0.066667     16.000000
  0.466667  0.133333  0.066667     16.000000
  0.200000  0.200000  0.066667      8.000000
  0.266667  0.200000  0.066667     16.000000
  0.333333  0.200000  0.066667     16.000000
  0.400000  0.200000  0.066667     16.000000
  0.466667  0.200000  0.066667     16.000000
  0.266667  0.266667  0.066667      8.000000
  0.333333  0.266667  0.066667     16.000000
  0.400000  0.266667  0.066667     16.000000
  0.466667  0.266667  0.066667     16.000000
  0.333333  0.333333  0.066667      8.000000
  0.400000  0.333333  0.066667     16.000000
  0.466667  0.333333  0.066667     16.000000
  0.400000  0.400000  0.066667      8.000000
  0.466667  0.400000  0.066667     16.000000
  0.466667  0.466667  0.066667      8.000000
  0.000000  0.000000  0.133333      2.000000
  0.066667  0.000000  0.133333      8.000000
  0.133333  0.000000  0.133333      8.000000
  0.200000  0.000000  0.133333      8.000000
  0.266667  0.000000  0.133333      8.000000
  0.333333  0.000000  0.133333      8.000000
  0.400000  0.000000  0.133333      8.000000
  0.466667  0.000000  0.133333      8.000000
  0.066667  0.066667  0.133333      8.000000
  0.133333  0.066667  0.133333     16.000000
  0.200000  0.066667  0.133333     16.000000
  0.266667  0.066667  0.133333     16.000000
  0.333333  0.066667  0.133333     16.000000
  0.400000  0.066667  0.133333     16.000000
  0.466667  0.066667  0.133333     16.000000
  0.133333  0.133333  0.133333      8.000000
  0.200000  0.133333  0.133333     16.000000
  0.266667  0.133333  0.133333     16.000000
  0.333333  0.133333  0.133333     16.000000
  0.400000  0.133333  0.133333     16.000000
  0.466667  0.133333  0.133333     16.000000
  0.200000  0.200000  0.133333      8.000000
  0.266667  0.200000  0.133333     16.000000
  0.333333  0.200000  0.133333     16.000000
  0.400000  0.200000  0.133333     16.000000
  0.466667  0.200000  0.133333     16.000000
  0.266667  0.266667  0.133333      8.000000
  0.333333  0.266667  0.133333     16.000000
  0.400000  0.266667  0.133333     16.000000
  0.466667  0.266667  0.133333     16.000000
  0.333333  0.333333  0.133333      8.000000
  0.400000  0.333333  0.133333     16.000000
  0.466667  0.333333  0.133333     16.000000
  0.400000  0.400000  0.133333      8.000000
  0.466667  0.400000  0.133333     16.000000
  0.466667  0.466667  0.133333      8.000000
  0.000000  0.000000  0.200000      2.000000
  0.066667  0.000000  0.200000      8.000000
  0.133333  0.000000  0.200000      8.000000
  0.200000  0.000000  0.200000      8.000000
  0.266667  0.000000  0.200000      8.000000
  0.333333  0.000000  0.200000      8.000000
  0.400000  0.000000  0.200000      8.000000
  0.466667  0.000000  0.200000      8.000000
  0.066667  0.066667  0.200000      8.000000
  0.133333  0.066667  0.200000     16.000000
  0.200000  0.066667  0.200000     16.000000
  0.266667  0.066667  0.200000     16.000000
  0.333333  0.066667  0.200000     16.000000
  0.400000  0.066667  0.200000     16.000000
  0.466667  0.066667  0.200000     16.000000
  0.133333  0.133333  0.200000      8.000000
  0.200000  0.133333  0.200000     16.000000
  0.266667  0.133333  0.200000     16.000000
  0.333333  0.133333  0.200000     16.000000
  0.400000  0.133333  0.200000     16.000000
  0.466667  0.133333  0.200000     16.000000
  0.200000  0.200000  0.200000      8.000000
  0.266667  0.200000  0.200000     16.000000
  0.333333  0.200000  0.200000     16.000000
  0.400000  0.200000  0.200000     16.000000
  0.466667  0.200000  0.200000     16.000000
  0.266667  0.266667  0.200000      8.000000
  0.333333  0.266667  0.200000     16.000000
  0.400000  0.266667  0.200000     16.000000
  0.466667  0.266667  0.200000     16.000000
  0.333333  0.333333  0.200000      8.000000
  0.400000  0.333333  0.200000     16.000000
  0.466667  0.333333  0.200000     16.000000
  0.400000  0.400000  0.200000      8.000000
  0.466667  0.400000  0.200000     16.000000
  0.466667  0.466667  0.200000      8.000000
  0.000000  0.000000  0.266667      2.000000
  0.066667  0.000000  0.266667      8.000000
  0.133333  0.000000  0.266667      8.000000
  0.200000  0.000000  0.266667      8.000000
  0.266667  0.000000  0.266667      8.000000
  0.333333  0.000000  0.266667      8.000000
  0.400000  0.000000  0.266667      8.000000
  0.466667  0.000000  0.266667      8.000000
  0.066667  0.066667  0.266667      8.000000
  0.133333  0.066667  0.266667     16.000000
  0.200000  0.066667  0.266667     16.000000
  0.266667  0.066667  0.266667     16.000000
  0.333333  0.066667  0.266667     16.000000
  0.400000  0.066667  0.266667     16.000000
  0.466667  0.066667  0.266667     16.000000
  0.133333  0.133333  0.266667      8.000000
  0.200000  0.133333  0.266667     16.000000
  0.266667  0.133333  0.266667     16.000000
  0.333333  0.133333  0.266667     16.000000
  0.400000  0.133333  0.266667     16.000000
  0.466667  0.133333  0.266667     16.000000
  0.200000  0.200000  0.266667      8.000000
  0.266667  0.200000  0.266667     16.000000
  0.333333  0.200000  0.266667     16.000000
  0.400000  0.200000  0.266667     16.000000
  0.466667  0.200000  0.266667     16.000000
  0.266667  0.266667  0.266667      8.000000
  0.333333  0.266667  0.266667     16.000000
  0.400000  0.266667  0.266667     16.000000
  0.466667  0.266667  0.266667     16.000000
  0.333333  0.333333  0.266667      8.000000
  0.400000  0.333333  0.266667     16.000000
  0.466667  0.333333  0.266667     16.000000
  0.400000  0.400000  0.266667      8.000000
  0.466667  0.400000  0.266667     16.000000
  0.466667  0.466667  0.266667      8.000000
  0.000000  0.000000  0.333333      2.000000
  0.066667  0.000000  0.333333      8.000000
  0.133333  0.000000  0.333333      8.000000
  0.200000  0.000000  0.333333      8.000000
  0.266667  0.000000  0.333333      8.000000
  0.333333  0.000000  0.333333      8.000000
  0.400000  0.000000  0.333333      8.000000
  0.466667  0.000000  0.333333      8.000000
  0.066667  0.066667  0.333333      8.000000
  0.133333  0.066667  0.333333     16.000000
  0.200000  0.066667  0.333333     16.000000
  0.266667  0.066667  0.333333     16.000000
  0.333333  0.066667  0.333333     16.000000
  0.400000  0.066667  0.333333     16.000000
  0.466667  0.066667  0.333333     16.000000
  0.133333  0.133333  0.333333      8.000000
  0.200000  0.133333  0.333333     16.000000
  0.266667  0.133333  0.333333     16.000000
  0.333333  0.133333  0.333333     16.000000
  0.400000  0.133333  0.333333     16.000000
  0.466667  0.133333  0.333333     16.000000
  0.200000  0.200000  0.333333      8.000000
  0.266667  0.200000  0.333333     16.000000
  0.333333  0.200000  0.333333     16.000000
  0.400000  0.200000  0.333333     16.000000
  0.466667  0.200000  0.333333     16.000000
  0.266667  0.266667  0.333333      8.000000
  0.333333  0.266667  0.333333     16.000000
  0.400000  0.266667  0.333333     16.000000
  0.466667  0.266667  0.333333     16.000000
  0.333333  0.333333  0.333333      8.000000
  0.400000  0.333333  0.333333     16.000000
  0.466667  0.333333  0.333333     16.000000
  0.400000  0.400000  0.333333      8.000000
  0.466667  0.400000  0.333333     16.000000
  0.466667  0.466667  0.333333      8.000000
  0.000000  0.000000  0.400000      2.000000
  0.066667  0.000000  0.400000      8.000000
  0.133333  0.000000  0.400000      8.000000
  0.200000  0.000000  0.400000      8.000000
  0.266667  0.000000  0.400000      8.000000
  0.333333  0.000000  0.400000      8.000000
  0.400000  0.000000  0.400000      8.000000
  0.466667  0.000000  0.400000      8.000000
  0.066667  0.066667  0.400000      8.000000
  0.133333  0.066667  0.400000     16.000000
  0.200000  0.066667  0.400000     16.000000
  0.266667  0.066667  0.400000     16.000000
  0.333333  0.066667  0.400000     16.000000
  0.400000  0.066667  0.400000     16.000000
  0.466667  0.066667  0.400000     16.000000
  0.133333  0.133333  0.400000      8.000000
  0.200000  0.133333  0.400000     16.000000
  0.266667  0.133333  0.400000     16.000000
  0.333333  0.133333  0.400000     16.000000
  0.400000  0.133333  0.400000     16.000000
  0.466667  0.133333  0.400000     16.000000
  0.200000  0.200000  0.400000      8.000000
  0.266667  0.200000  0.400000     16.000000
  0.333333  0.200000  0.400000     16.000000
  0.400000  0.200000  0.400000     16.000000
  0.466667  0.200000  0.400000     16.000000
  0.266667  0.266667  0.400000      8.000000
  0.333333  0.266667  0.400000     16.000000
  0.400000  0.266667  0.400000     16.000000
  0.466667  0.266667  0.400000     16.000000
  0.333333  0.333333  0.400000      8.000000
  0.400000  0.333333  0.400000     16.000000
  0.466667  0.333333  0.400000     16.000000
  0.400000  0.400000  0.400000      8.000000
  0.466667  0.400000  0.400000     16.000000
  0.466667  0.466667  0.400000      8.000000
  0.000000  0.000000  0.466667      2.000000
  0.066667  0.000000  0.466667      8.000000
  0.133333  0.000000  0.466667      8.000000
  0.200000  0.000000  0.466667      8.000000
  0.266667  0.000000  0.466667      8.000000
  0.333333  0.000000  0.466667      8.000000
  0.400000  0.000000  0.466667      8.000000
  0.466667  0.000000  0.466667      8.000000
  0.066667  0.066667  0.466667      8.000000
  0.133333  0.066667  0.466667     16.000000
  0.200000  0.066667  0.466667     16.000000
  0.266667  0.066667  0.466667     16.000000
  0.333333  0.066667  0.466667     16.000000
  0.400000  0.066667  0.466667     16.000000
  0.466667  0.066667  0.466667     16.000000
  0.133333  0.133333  0.466667      8.000000
  0.200000  0.133333  0.466667     16.000000
  0.266667  0.133333  0.466667     16.000000
  0.333333  0.133333  0.466667     16.000000
  0.400000  0.133333  0.466667     16.000000
  0.466667  0.133333  0.466667     16.000000
  0.200000  0.200000  0.466667      8.000000
  0.266667  0.200000  0.466667     16.000000
  0.333333  0.200000  0.466667     16.000000
  0.400000  0.200000  0.466667     16.000000
  0.466667  0.200000  0.466667     16.000000
  0.266667  0.266667  0.466667      8.000000
  0.333333  0.266667  0.466667     16.000000
  0.400000  0.266667  0.466667     16.000000
  0.466667  0.266667  0.466667     16.000000
  0.333333  0.333333  0.466667      8.000000
  0.400000  0.333333  0.466667     16.000000
  0.466667  0.333333  0.466667     16.000000
  0.400000  0.400000  0.466667      8.000000
  0.466667  0.400000  0.466667     16.000000
  0.466667  0.466667  0.466667      8.000000
 
 Following cartesian coordinates:
            Coordinates               Weight
  0.000000  0.000000  0.000000      1.000000
  0.067385  0.000000  0.000000      4.000000
  0.134770  0.000000  0.000000      4.000000
  0.202154  0.000000  0.000000      4.000000
  0.269539  0.000000  0.000000      4.000000
  0.336924  0.000000  0.000000      4.000000
  0.404309  0.000000  0.000000      4.000000
  0.471694  0.000000  0.000000      4.000000
  0.067385  0.067385  0.000000      4.000000
  0.134770  0.067385  0.000000      8.000000
  0.202154  0.067385  0.000000      8.000000
  0.269539  0.067385  0.000000      8.000000
  0.336924  0.067385  0.000000      8.000000
  0.404309  0.067385  0.000000      8.000000
  0.471694  0.067385  0.000000      8.000000
  0.134770  0.134770  0.000000      4.000000
  0.202154  0.134770  0.000000      8.000000
  0.269539  0.134770  0.000000      8.000000
  0.336924  0.134770  0.000000      8.000000
  0.404309  0.134770  0.000000      8.000000
  0.471694  0.134770  0.000000      8.000000
  0.202154  0.202154  0.000000      4.000000
  0.269539  0.202154  0.000000      8.000000
  0.336924  0.202154  0.000000      8.000000
  0.404309  0.202154  0.000000      8.000000
  0.471694  0.202154  0.000000      8.000000
  0.269539  0.269539  0.000000      4.000000
  0.336924  0.269539  0.000000      8.000000
  0.404309  0.269539  0.000000      8.000000
  0.471694  0.269539  0.000000      8.000000
  0.336924  0.336924  0.000000      4.000000
  0.404309  0.336924  0.000000      8.000000
  0.471694  0.336924  0.000000      8.000000
  0.404309  0.404309  0.000000      4.000000
  0.471694  0.404309  0.000000      8.000000
  0.471694  0.471694  0.000000      4.000000
  0.000000  0.000000  0.065438      2.000000
  0.067385  0.000000  0.065438      8.000000
  0.134770  0.000000  0.065438      8.000000
  0.202154  0.000000  0.065438      8.000000
  0.269539  0.000000  0.065438      8.000000
  0.336924  0.000000  0.065438      8.000000
  0.404309  0.000000  0.065438      8.000000
  0.471694  0.000000  0.065438      8.000000
  0.067385  0.067385  0.065438      8.000000
  0.134770  0.067385  0.065438     16.000000
  0.202154  0.067385  0.065438     16.000000
  0.269539  0.067385  0.065438     16.000000
  0.336924  0.067385  0.065438     16.000000
  0.404309  0.067385  0.065438     16.000000
  0.471694  0.067385  0.065438     16.000000
  0.134770  0.134770  0.065438      8.000000
  0.202154  0.134770  0.065438     16.000000
  0.269539  0.134770  0.065438     16.000000
  0.336924  0.134770  0.065438     16.000000
  0.404309  0.134770  0.065438     16.000000
  0.471694  0.134770  0.065438     16.000000
  0.202154  0.202154  0.065438      8.000000
  0.269539  0.202154  0.065438     16.000000
  0.336924  0.202154  0.065438     16.000000
  0.404309  0.202154  0.065438     16.000000
  0.471694  0.202154  0.065438     16.000000
  0.269539  0.269539  0.065438      8.000000
  0.336924  0.269539  0.065438     16.000000
  0.404309  0.269539  0.065438     16.000000
  0.471694  0.269539  0.065438     16.000000
  0.336924  0.336924  0.065438      8.000000
  0.404309  0.336924  0.065438     16.000000
  0.471694  0.336924  0.065438     16.000000
  0.404309  0.404309  0.065438      8.000000
  0.471694  0.404309  0.065438     16.000000
  0.471694  0.471694  0.065438      8.000000
  0.000000  0.000000  0.130877      2.000000
  0.067385  0.000000  0.130877      8.000000
  0.134770  0.000000  0.130877      8.000000
  0.202154  0.000000  0.130877      8.000000
  0.269539  0.000000  0.130877      8.000000
  0.336924  0.000000  0.130877      8.000000
  0.404309  0.000000  0.130877      8.000000
  0.471694  0.000000  0.130877      8.000000
  0.067385  0.067385  0.130877      8.000000
  0.134770  0.067385  0.130877     16.000000
  0.202154  0.067385  0.130877     16.000000
  0.269539  0.067385  0.130877     16.000000
  0.336924  0.067385  0.130877     16.000000
  0.404309  0.067385  0.130877     16.000000
  0.471694  0.067385  0.130877     16.000000
  0.134770  0.134770  0.130877      8.000000
  0.202154  0.134770  0.130877     16.000000
  0.269539  0.134770  0.130877     16.000000
  0.336924  0.134770  0.130877     16.000000
  0.404309  0.134770  0.130877     16.000000
  0.471694  0.134770  0.130877     16.000000
  0.202154  0.202154  0.130877      8.000000
  0.269539  0.202154  0.130877     16.000000
  0.336924  0.202154  0.130877     16.000000
  0.404309  0.202154  0.130877     16.000000
  0.471694  0.202154  0.130877     16.000000
  0.269539  0.269539  0.130877      8.000000
  0.336924  0.269539  0.130877     16.000000
  0.404309  0.269539  0.130877     16.000000
  0.471694  0.269539  0.130877     16.000000
  0.336924  0.336924  0.130877      8.000000
  0.404309  0.336924  0.130877     16.000000
  0.471694  0.336924  0.130877     16.000000
  0.404309  0.404309  0.130877      8.000000
  0.471694  0.404309  0.130877     16.000000
  0.471694  0.471694  0.130877      8.000000
  0.000000  0.000000  0.196315      2.000000
  0.067385  0.000000  0.196315      8.000000
  0.134770  0.000000  0.196315      8.000000
  0.202154  0.000000  0.196315      8.000000
  0.269539  0.000000  0.196315      8.000000
  0.336924  0.000000  0.196315      8.000000
  0.404309  0.000000  0.196315      8.000000
  0.471694  0.000000  0.196315      8.000000
  0.067385  0.067385  0.196315      8.000000
  0.134770  0.067385  0.196315     16.000000
  0.202154  0.067385  0.196315     16.000000
  0.269539  0.067385  0.196315     16.000000
  0.336924  0.067385  0.196315     16.000000
  0.404309  0.067385  0.196315     16.000000
  0.471694  0.067385  0.196315     16.000000
  0.134770  0.134770  0.196315      8.000000
  0.202154  0.134770  0.196315     16.000000
  0.269539  0.134770  0.196315     16.000000
  0.336924  0.134770  0.196315     16.000000
  0.404309  0.134770  0.196315     16.000000
  0.471694  0.134770  0.196315     16.000000
  0.202154  0.202154  0.196315      8.000000
  0.269539  0.202154  0.196315     16.000000
  0.336924  0.202154  0.196315     16.000000
  0.404309  0.202154  0.196315     16.000000
  0.471694  0.202154  0.196315     16.000000
  0.269539  0.269539  0.196315      8.000000
  0.336924  0.269539  0.196315     16.000000
  0.404309  0.269539  0.196315     16.000000
  0.471694  0.269539  0.196315     16.000000
  0.336924  0.336924  0.196315      8.000000
  0.404309  0.336924  0.196315     16.000000
  0.471694  0.336924  0.196315     16.000000
  0.404309  0.404309  0.196315      8.000000
  0.471694  0.404309  0.196315     16.000000
  0.471694  0.471694  0.196315      8.000000
  0.000000  0.000000  0.261753      2.000000
  0.067385  0.000000  0.261753      8.000000
  0.134770  0.000000  0.261753      8.000000
  0.202154  0.000000  0.261753      8.000000
  0.269539  0.000000  0.261753      8.000000
  0.336924  0.000000  0.261753      8.000000
  0.404309  0.000000  0.261753      8.000000
  0.471694  0.000000  0.261753      8.000000
  0.067385  0.067385  0.261753      8.000000
  0.134770  0.067385  0.261753     16.000000
  0.202154  0.067385  0.261753     16.000000
  0.269539  0.067385  0.261753     16.000000
  0.336924  0.067385  0.261753     16.000000
  0.404309  0.067385  0.261753     16.000000
  0.471694  0.067385  0.261753     16.000000
  0.134770  0.134770  0.261753      8.000000
  0.202154  0.134770  0.261753     16.000000
  0.269539  0.134770  0.261753     16.000000
  0.336924  0.134770  0.261753     16.000000
  0.404309  0.134770  0.261753     16.000000
  0.471694  0.134770  0.261753     16.000000
  0.202154  0.202154  0.261753      8.000000
  0.269539  0.202154  0.261753     16.000000
  0.336924  0.202154  0.261753     16.000000
  0.404309  0.202154  0.261753     16.000000
  0.471694  0.202154  0.261753     16.000000
  0.269539  0.269539  0.261753      8.000000
  0.336924  0.269539  0.261753     16.000000
  0.404309  0.269539  0.261753     16.000000
  0.471694  0.269539  0.261753     16.000000
  0.336924  0.336924  0.261753      8.000000
  0.404309  0.336924  0.261753     16.000000
  0.471694  0.336924  0.261753     16.000000
  0.404309  0.404309  0.261753      8.000000
  0.471694  0.404309  0.261753     16.000000
  0.471694  0.471694  0.261753      8.000000
  0.000000  0.000000  0.327192      2.000000
  0.067385  0.000000  0.327192      8.000000
  0.134770  0.000000  0.327192      8.000000
  0.202154  0.000000  0.327192      8.000000
  0.269539  0.000000  0.327192      8.000000
  0.336924  0.000000  0.327192      8.000000
  0.404309  0.000000  0.327192      8.000000
  0.471694  0.000000  0.327192      8.000000
  0.067385  0.067385  0.327192      8.000000
  0.134770  0.067385  0.327192     16.000000
  0.202154  0.067385  0.327192     16.000000
  0.269539  0.067385  0.327192     16.000000
  0.336924  0.067385  0.327192     16.000000
  0.404309  0.067385  0.327192     16.000000
  0.471694  0.067385  0.327192     16.000000
  0.134770  0.134770  0.327192      8.000000
  0.202154  0.134770  0.327192     16.000000
  0.269539  0.134770  0.327192     16.000000
  0.336924  0.134770  0.327192     16.000000
  0.404309  0.134770  0.327192     16.000000
  0.471694  0.134770  0.327192     16.000000
  0.202154  0.202154  0.327192      8.000000
  0.269539  0.202154  0.327192     16.000000
  0.336924  0.202154  0.327192     16.000000
  0.404309  0.202154  0.327192     16.000000
  0.471694  0.202154  0.327192     16.000000
  0.269539  0.269539  0.327192      8.000000
  0.336924  0.269539  0.327192     16.000000
  0.404309  0.269539  0.327192     16.000000
  0.471694  0.269539  0.327192     16.000000
  0.336924  0.336924  0.327192      8.000000
  0.404309  0.336924  0.327192     16.000000
  0.471694  0.336924  0.327192     16.000000
  0.404309  0.404309  0.327192      8.000000
  0.471694  0.404309  0.327192     16.000000
  0.471694  0.471694  0.327192      8.000000
  0.000000  0.000000  0.392630      2.000000
  0.067385  0.000000  0.392630      8.000000
  0.134770  0.000000  0.392630      8.000000
  0.202154  0.000000  0.392630      8.000000
  0.269539  0.000000  0.392630      8.000000
  0.336924  0.000000  0.392630      8.000000
  0.404309  0.000000  0.392630      8.000000
  0.471694  0.000000  0.392630      8.000000
  0.067385  0.067385  0.392630      8.000000
  0.134770  0.067385  0.392630     16.000000
  0.202154  0.067385  0.392630     16.000000
  0.269539  0.067385  0.392630     16.000000
  0.336924  0.067385  0.392630     16.000000
  0.404309  0.067385  0.392630     16.000000
  0.471694  0.067385  0.392630     16.000000
  0.134770  0.134770  0.392630      8.000000
  0.202154  0.134770  0.392630     16.000000
  0.269539  0.134770  0.392630     16.000000
  0.336924  0.134770  0.392630     16.000000
  0.404309  0.134770  0.392630     16.000000
  0.471694  0.134770  0.392630     16.000000
  0.202154  0.202154  0.392630      8.000000
  0.269539  0.202154  0.392630     16.000000
  0.336924  0.202154  0.392630     16.000000
  0.404309  0.202154  0.392630     16.000000
  0.471694  0.202154  0.392630     16.000000
  0.269539  0.269539  0.392630      8.000000
  0.336924  0.269539  0.392630     16.000000
  0.404309  0.269539  0.392630     16.000000
  0.471694  0.269539  0.392630     16.000000
  0.336924  0.336924  0.392630      8.000000
  0.404309  0.336924  0.392630     16.000000
  0.471694  0.336924  0.392630     16.000000
  0.404309  0.404309  0.392630      8.000000
  0.471694  0.404309  0.392630     16.000000
  0.471694  0.471694  0.392630      8.000000
  0.000000  0.000000  0.458068      2.000000
  0.067385  0.000000  0.458068      8.000000
  0.134770  0.000000  0.458068      8.000000
  0.202154  0.000000  0.458068      8.000000
  0.269539  0.000000  0.458068      8.000000
  0.336924  0.000000  0.458068      8.000000
  0.404309  0.000000  0.458068      8.000000
  0.471694  0.000000  0.458068      8.000000
  0.067385  0.067385  0.458068      8.000000
  0.134770  0.067385  0.458068     16.000000
  0.202154  0.067385  0.458068     16.000000
  0.269539  0.067385  0.458068     16.000000
  0.336924  0.067385  0.458068     16.000000
  0.404309  0.067385  0.458068     16.000000
  0.471694  0.067385  0.458068     16.000000
  0.134770  0.134770  0.458068      8.000000
  0.202154  0.134770  0.458068     16.000000
  0.269539  0.134770  0.458068     16.000000
  0.336924  0.134770  0.458068     16.000000
  0.404309  0.134770  0.458068     16.000000
  0.471694  0.134770  0.458068     16.000000
  0.202154  0.202154  0.458068      8.000000
  0.269539  0.202154  0.458068     16.000000
  0.336924  0.202154  0.458068     16.000000
  0.404309  0.202154  0.458068     16.000000
  0.471694  0.202154  0.458068     16.000000
  0.269539  0.269539  0.458068      8.000000
  0.336924  0.269539  0.458068     16.000000
  0.404309  0.269539  0.458068     16.000000
  0.471694  0.269539  0.458068     16.000000
  0.336924  0.336924  0.458068      8.000000
  0.404309  0.336924  0.458068     16.000000
  0.471694  0.336924  0.458068     16.000000
  0.404309  0.404309  0.458068      8.000000
  0.471694  0.404309  0.458068     16.000000
  0.471694  0.471694  0.458068      8.000000
 


--------------------------------------------------------------------------------------------------------




 Dimension of arrays:
   k-points           NKPTS =    288   k-points in BZ     NKDIM =    288   number of bands    NBANDS=    150
   number of dos      NEDOS =   1500   number of ions     NIONS =     16
   non local maximal  LDIM  =      6   non local SUM 2l+1 LMDIM =     18
   total plane-waves  NPLWV =  84672
   max r-space proj   IRMAX =   6077   max aug-charges    IRDMAX= 136307
   dimension x,y,z NGX =    42 NGY =   42 NGZ =   48
   dimension x,y,z NGXF=    84 NGYF=   84 NGZF=   96
   support grid    NGXF=   168 NGYF=  168 NGZF=  192
   ions per type =               8   4   4
   NGX,Y,Z   is equivalent  to a cutoff of  12.30, 12.30, 13.65 a.u.
   NGXF,Y,Z  is equivalent  to a cutoff of  24.59, 24.59, 27.29 a.u.

 SYSTEM =  NiCoMnGa                                
 POSCAR =  Heusler tetragonGa                      

 Startparameter for this run:
   NWRITE =      2    write-flag & timer
   PREC   = accura    normal or accurate (medium, high low for compatibility)
   ISTART =      0    job   : 0-new  1-cont  2-samecut
   ICHARG =      2    charge: 1-file 2-atom 10-const
   ISPIN  =      2    spin polarized calculation?
   LNONCOLLINEAR =      F non collinear calculations
   LSORBIT =      F    spin-orbit coupling
   INIWAV =      1    electr: 0-lowe 1-rand  2-diag
   LASPH  =      F    aspherical Exc in radial PAW
   METAGGA=      F    non-selfconsistent MetaGGA calc.

 Electronic Relaxation 1
   ENCUT  =  500.0 eV  36.75 Ry    6.06 a.u.  10.35 10.35 10.66*2*pi/ulx,y,z
   ENINI  =  500.0     initial cutoff
   ENAUG  =  578.3 eV  augmentation charge cutoff
   NELM   =    160;   NELMIN=  2; NELMDL= -6     # of ELM steps 
   EDIFF  = 0.1E-05   stopping-criterion for ELM
   LREAL  =      T    real-space projection
   NLSPLINE    = F    spline interpolate recip. space projectors
   LCOMPAT=      F    compatible to vasp.4.4
   GGA_COMPAT  = T    GGA compatible to vasp.4.4-vasp.4.6
   LMAXPAW     = -100 max onsite density
   LMAXMIX     =    6 max onsite mixed and CHGCAR
   VOSKOWN=      0    Vosko Wilk Nusair interpolation
   ROPT   =   -0.00025  -0.00025  -0.00025
 Ionic relaxation
   EDIFFG = -.1E-02   stopping-criterion for IOM
   NSW    =      0    number of steps for IOM
   NBLOCK =      1;   KBLOCK =      1    inner block; outer block 
   IBRION =     -1    ionic relax: 0-MD 1-quasi-New 2-CG
   NFREE  =      1    steps in history (QN), initial steepest desc. (CG)
   ISIF   =      3    stress and relaxation
   IWAVPR =     10    prediction:  0-non 1-charg 2-wave 3-comb
   ISYM   =      2    0-nonsym 1-usesym 2-fastsym
   LCORR  =      T    Harris-Foulkes like correction to forces

   POTIM  = 0.0010    time-step for ionic-motion
   TEIN   =    0.0    initial temperature
   TEBEG  =    0.0;   TEEND  =   0.0 temperature during run
   SMASS  =  -3.00    Nose mass-parameter (am)
   estimated Nose-frequenzy (Omega)   =  0.10E-29 period in steps = 0.63E+49 mass=  -0.737E-27a.u.
   SCALEE = 1.0000    scale energy and forces
   NPACO  =    256;   APACO  = 16.0  distance and # of slots for P.C.
   PSTRESS=    0.0 pullay stress

  Mass of Ions in am
   POMASS =  55.85 58.93 69.72
  Ionic Valenz
   ZVAL   =  14.00 15.00 13.00
  Atomic Wigner-Seitz radii
   RWIGS  =   1.16  1.16  1.16
  virtual crystal weights 
   VCA    =   1.00  1.00  1.00
   NELECT =     224.0000    total number of electrons
   NUPDOWN=      -1.0000    fix difference up-down

 DOS related values:
   EMIN   =  10.00;   EMAX   =-10.00  energy-range for DOS
   EFERMI =   0.00
   ISMEAR =     1;   SIGMA  =   0.10  broadening in eV -4-tet -1-fermi 0-gaus

 Electronic relaxation 2 (details)
   IALGO  =     38    algorithm
   LDIAG  =      T    sub-space diagonalisation (order eigenvalues)
   LSUBROT=      F    optimize rotation matrix (better conditioning)
   TURBO    =      0    0=normal 1=particle mesh
   IRESTART =      0    0=no restart 2=restart with 2 vectors
   NREBOOT  =      0    no. of reboots
   NMIN     =      0    reboot dimension
   EREF     =   0.00    reference energy to select bands
   IMIX   =      4    mixing-type and parameters
     AMIX     =   0.18;   BMIX     =  0.00
     AMIX_MAG =   0.26;   BMIX_MAG =  0.01
     AMIN     =   0.10
     WC   =   100.;   INIMIX=   1;  MIXPRE=   1;  MAXMIX= -45

 Intra band minimization:
   WEIMIN = 0.0000     energy-eigenvalue tresh-hold
   EBREAK =  0.17E-08  absolut break condition
   DEPER  =   0.30     relativ break condition  

   TIME   =   0.40     timestep for ELM

  volume/ion in A,a.u.               =      11.79        79.54
  Fermi-wavevector in a.u.,A,eV,Ry     =   1.733759  3.276330 40.898050  3.005922
  Thomas-Fermi vector in A             =   2.807685
 
 Write flags
   LWAVE        =      F    write WAVECAR
   LDOWNSAMPLE  =      F    k-point downsampling of WAVECAR
   LCHARG       =      T    write CHGCAR
   LVTOT        =      F    write LOCPOT, total local potential
   LVHAR        =      F    write LOCPOT, Hartree potential only
   LELF         =      F    write electronic localiz. function (ELF)
   LORBIT       =     10    0 simple, 1 ext, 2 COOP (PROOUT), +10 PAW based schemes


 Dipole corrections
   LMONO  =      F    monopole corrections only (constant potential shift)
   LDIPOL =      F    correct potential (dipole corrections)
   IDIPOL =      0    1-x, 2-y, 3-z, 4-all directions 
   EPSILON=  1.0000000 bulk dielectric constant

 Exchange correlation treatment:
   GGA     =    --    GGA type
   LEXCH   =     8    internal setting for exchange type
   VOSKOWN=      0    Vosko Wilk Nusair interpolation
   LHFCALC =     F    Hartree Fock is set to
   LHFONE  =     F    Hartree Fock one center treatment
   AEXX    =    0.0000 exact exchange contribution

 Linear response parameters
   LEPSILON=     F    determine dielectric tensor
   LRPA    =     F    only Hartree local field effects (RPA)
   LNABLA  =     F    use nabla operator in PAW spheres
   LVEL    =     F    velocity operator in full k-point grid
   LINTERFAST=   F  fast interpolation
   KINTER  =     0    interpolate to denser k-point grid
   CSHIFT  =0.1000    complex shift for real part using Kramers Kronig
   OMEGAMAX=  -1.0    maximum frequency
   DEG_THRESHOLD= 0.2000000E-02 threshold for treating states as degnerate
   RTIME   =   -0.100 relaxation time in fs
  (WPLASMAI=    0.000 imaginary part of plasma frequency in eV, 0.658/RTIME)
   DFIELD  = 0.0000000 0.0000000 0.0000000 field for delta impulse in time
 
 Orbital magnetization related:
   ORBITALMAG=     F  switch on orbital magnetization
   LCHIMAG   =     F  perturbation theory with respect to B field
   DQ        =  0.001000  dq finite difference perturbation B field
   LLRAUG    =     F  two centre corrections for induced B field



--------------------------------------------------------------------------------------------------------


 Static calculation
 charge density and potential will be updated during run
 spin polarized calculation
 Variant of blocked Davidson
 Davidson routine will perform the subspace rotation
 perform sub-space diagonalisation
    after iterative eigenvector-optimisation
 modified Broyden-mixing scheme, WC =      100.0
 initial mixing is a Kerker type mixing with AMIX =  0.1800 and BMIX =      0.0025
 Hartree-type preconditioning will be used
 using additional bands           38
 real space projection scheme for non local part
 use partial core corrections
 calculate Harris-corrections to forces 
   (improved forces if not selfconsistent)
 use gradient corrections 
 use of overlap-Matrix (Vanderbilt PP)
 Methfessel and Paxton  Order N= 1 SIGMA  =   0.10


--------------------------------------------------------------------------------------------------------


  energy-cutoff  :      500.00
  volume of cell :      188.58
      direct lattice vectors                 reciprocal lattice vectors
     5.678827511  0.000000000  0.000000000     0.176092688  0.000000000  0.000000000
     0.000000000  5.678827511  0.000000000     0.000000000  0.176092688  0.000000000
     0.000000000  0.000000000  5.847747650     0.000000000  0.000000000  0.171006011

  length of vectors
     5.678827511  5.678827511  5.847747650     0.176092688  0.176092688  0.171006011


 
 k-points in units of 2pi/SCALE and weight: Ni7CoMn5CrSn2                           
   0.00000000  0.00000000  0.00000000       0.000
   0.06738480  0.00000000  0.00000000       0.001
   0.13476960  0.00000000  0.00000000       0.001
   0.20215441  0.00000000  0.00000000       0.001
   0.26953921  0.00000000  0.00000000       0.001
   0.33692401  0.00000000  0.00000000       0.001
   0.40430881  0.00000000  0.00000000       0.001
   0.47169361  0.00000000  0.00000000       0.001
   0.06738480  0.06738480  0.00000000       0.001
   0.13476960  0.06738480  0.00000000       0.002
   0.20215441  0.06738480  0.00000000       0.002
   0.26953921  0.06738480  0.00000000       0.002
   0.33692401  0.06738480  0.00000000       0.002
   0.40430881  0.06738480  0.00000000       0.002
   0.47169361  0.06738480  0.00000000       0.002
   0.13476960  0.13476960  0.00000000       0.001
   0.20215441  0.13476960  0.00000000       0.002
   0.26953921  0.13476960  0.00000000       0.002
   0.33692401  0.13476960  0.00000000       0.002
   0.40430881  0.13476960  0.00000000       0.002
   0.47169361  0.13476960  0.00000000       0.002
   0.20215441  0.20215441  0.00000000       0.001
   0.26953921  0.20215441  0.00000000       0.002
   0.33692401  0.20215441  0.00000000       0.002
   0.40430881  0.20215441  0.00000000       0.002
   0.47169361  0.20215441  0.00000000       0.002
   0.26953921  0.26953921  0.00000000       0.001
   0.33692401  0.26953921  0.00000000       0.002
   0.40430881  0.26953921  0.00000000       0.002
   0.47169361  0.26953921  0.00000000       0.002
   0.33692401  0.33692401  0.00000000       0.001
   0.40430881  0.33692401  0.00000000       0.002
   0.47169361  0.33692401  0.00000000       0.002
   0.40430881  0.40430881  0.00000000       0.001
   0.47169361  0.40430881  0.00000000       0.002
   0.47169361  0.47169361  0.00000000       0.001
   0.00000000  0.00000000  0.06543830       0.001
   0.06738480  0.00000000  0.06543830       0.002
   0.13476960  0.00000000  0.06543830       0.002
   0.20215441  0.00000000  0.06543830       0.002
   0.26953921  0.00000000  0.06543830       0.002
   0.33692401  0.00000000  0.06543830       0.002
   0.40430881  0.00000000  0.06543830       0.002
   0.47169361  0.00000000  0.06543830       0.002
   0.06738480  0.06738480  0.06543830       0.002
   0.13476960  0.06738480  0.06543830       0.005
   0.20215441  0.06738480  0.06543830       0.005
   0.26953921  0.06738480  0.06543830       0.005
   0.33692401  0.06738480  0.06543830       0.005
   0.40430881  0.06738480  0.06543830       0.005
   0.47169361  0.06738480  0.06543830       0.005
   0.13476960  0.13476960  0.06543830       0.002
   0.20215441  0.13476960  0.06543830       0.005
   0.26953921  0.13476960  0.06543830       0.005
   0.33692401  0.13476960  0.06543830       0.005
   0.40430881  0.13476960  0.06543830       0.005
   0.47169361  0.13476960  0.06543830       0.005
   0.20215441  0.20215441  0.06543830       0.002
   0.26953921  0.20215441  0.06543830       0.005
   0.33692401  0.20215441  0.06543830       0.005
   0.40430881  0.20215441  0.06543830       0.005
   0.47169361  0.20215441  0.06543830       0.005
   0.26953921  0.26953921  0.06543830       0.002
   0.33692401  0.26953921  0.06543830       0.005
   0.40430881  0.26953921  0.06543830       0.005
   0.47169361  0.26953921  0.06543830       0.005
   0.33692401  0.33692401  0.06543830       0.002
   0.40430881  0.33692401  0.06543830       0.005
   0.47169361  0.33692401  0.06543830       0.005
   0.40430881  0.40430881  0.06543830       0.002
   0.47169361  0.40430881  0.06543830       0.005
   0.47169361  0.47169361  0.06543830       0.002
   0.00000000  0.00000000  0.13087660       0.001
   0.06738480  0.00000000  0.13087660       0.002
   0.13476960  0.00000000  0.13087660       0.002
   0.20215441  0.00000000  0.13087660       0.002
   0.26953921  0.00000000  0.13087660       0.002
   0.33692401  0.00000000  0.13087660       0.002
   0.40430881  0.00000000  0.13087660       0.002
   0.47169361  0.00000000  0.13087660       0.002
   0.06738480  0.06738480  0.13087660       0.002
   0.13476960  0.06738480  0.13087660       0.005
   0.20215441  0.06738480  0.13087660       0.005
   0.26953921  0.06738480  0.13087660       0.005
   0.33692401  0.06738480  0.13087660       0.005
   0.40430881  0.06738480  0.13087660       0.005
   0.47169361  0.06738480  0.13087660       0.005
   0.13476960  0.13476960  0.13087660       0.002
   0.20215441  0.13476960  0.13087660       0.005
   0.26953921  0.13476960  0.13087660       0.005
   0.33692401  0.13476960  0.13087660       0.005
   0.40430881  0.13476960  0.13087660       0.005
   0.47169361  0.13476960  0.13087660       0.005
   0.20215441  0.20215441  0.13087660       0.002
   0.26953921  0.20215441  0.13087660       0.005
   0.33692401  0.20215441  0.13087660       0.005
   0.40430881  0.20215441  0.13087660       0.005
   0.47169361  0.20215441  0.13087660       0.005
   0.26953921  0.26953921  0.13087660       0.002
   0.33692401  0.26953921  0.13087660       0.005
   0.40430881  0.26953921  0.13087660       0.005
   0.47169361  0.26953921  0.13087660       0.005
   0.33692401  0.33692401  0.13087660       0.002
   0.40430881  0.33692401  0.13087660       0.005
   0.47169361  0.33692401  0.13087660       0.005
   0.40430881  0.40430881  0.13087660       0.002
   0.47169361  0.40430881  0.13087660       0.005
   0.47169361  0.47169361  0.13087660       0.002
   0.00000000  0.00000000  0.19631490       0.001
   0.06738480  0.00000000  0.19631490       0.002
   0.13476960  0.00000000  0.19631490       0.002
   0.20215441  0.00000000  0.19631490       0.002
   0.26953921  0.00000000  0.19631490       0.002
   0.33692401  0.00000000  0.19631490       0.002
   0.40430881  0.00000000  0.19631490       0.002
   0.47169361  0.00000000  0.19631490       0.002
   0.06738480  0.06738480  0.19631490       0.002
   0.13476960  0.06738480  0.19631490       0.005
   0.20215441  0.06738480  0.19631490       0.005
   0.26953921  0.06738480  0.19631490       0.005
   0.33692401  0.06738480  0.19631490       0.005
   0.40430881  0.06738480  0.19631490       0.005
   0.47169361  0.06738480  0.19631490       0.005
   0.13476960  0.13476960  0.19631490       0.002
   0.20215441  0.13476960  0.19631490       0.005
   0.26953921  0.13476960  0.19631490       0.005
   0.33692401  0.13476960  0.19631490       0.005
   0.40430881  0.13476960  0.19631490       0.005
   0.47169361  0.13476960  0.19631490       0.005
   0.20215441  0.20215441  0.19631490       0.002
   0.26953921  0.20215441  0.19631490       0.005
   0.33692401  0.20215441  0.19631490       0.005
   0.40430881  0.20215441  0.19631490       0.005
   0.47169361  0.20215441  0.19631490       0.005
   0.26953921  0.26953921  0.19631490       0.002
   0.33692401  0.26953921  0.19631490       0.005
   0.40430881  0.26953921  0.19631490       0.005
   0.47169361  0.26953921  0.19631490       0.005
   0.33692401  0.33692401  0.19631490       0.002
   0.40430881  0.33692401  0.19631490       0.005
   0.47169361  0.33692401  0.19631490       0.005
   0.40430881  0.40430881  0.19631490       0.002
   0.47169361  0.40430881  0.19631490       0.005
   0.47169361  0.47169361  0.19631490       0.002
   0.00000000  0.00000000  0.26175320       0.001
   0.06738480  0.00000000  0.26175320       0.002
   0.13476960  0.00000000  0.26175320       0.002
   0.20215441  0.00000000  0.26175320       0.002
   0.26953921  0.00000000  0.26175320       0.002
   0.33692401  0.00000000  0.26175320       0.002
   0.40430881  0.00000000  0.26175320       0.002
   0.47169361  0.00000000  0.26175320       0.002
   0.06738480  0.06738480  0.26175320       0.002
   0.13476960  0.06738480  0.26175320       0.005
   0.20215441  0.06738480  0.26175320       0.005
   0.26953921  0.06738480  0.26175320       0.005
   0.33692401  0.06738480  0.26175320       0.005
   0.40430881  0.06738480  0.26175320       0.005
   0.47169361  0.06738480  0.26175320       0.005
   0.13476960  0.13476960  0.26175320       0.002
   0.20215441  0.13476960  0.26175320       0.005
   0.26953921  0.13476960  0.26175320       0.005
   0.33692401  0.13476960  0.26175320       0.005
   0.40430881  0.13476960  0.26175320       0.005
   0.47169361  0.13476960  0.26175320       0.005
   0.20215441  0.20215441  0.26175320       0.002
   0.26953921  0.20215441  0.26175320       0.005
   0.33692401  0.20215441  0.26175320       0.005
   0.40430881  0.20215441  0.26175320       0.005
   0.47169361  0.20215441  0.26175320       0.005
   0.26953921  0.26953921  0.26175320       0.002
   0.33692401  0.26953921  0.26175320       0.005
   0.40430881  0.26953921  0.26175320       0.005
   0.47169361  0.26953921  0.26175320       0.005
   0.33692401  0.33692401  0.26175320       0.002
   0.40430881  0.33692401  0.26175320       0.005
   0.47169361  0.33692401  0.26175320       0.005
   0.40430881  0.40430881  0.26175320       0.002
   0.47169361  0.40430881  0.26175320       0.005
   0.47169361  0.47169361  0.26175320       0.002
   0.00000000  0.00000000  0.32719150       0.001
   0.06738480  0.00000000  0.32719150       0.002
   0.13476960  0.00000000  0.32719150       0.002
   0.20215441  0.00000000  0.32719150       0.002
   0.26953921  0.00000000  0.32719150       0.002
   0.33692401  0.00000000  0.32719150       0.002
   0.40430881  0.00000000  0.32719150       0.002
   0.47169361  0.00000000  0.32719150       0.002
   0.06738480  0.06738480  0.32719150       0.002
   0.13476960  0.06738480  0.32719150       0.005
   0.20215441  0.06738480  0.32719150       0.005
   0.26953921  0.06738480  0.32719150       0.005
   0.33692401  0.06738480  0.32719150       0.005
   0.40430881  0.06738480  0.32719150       0.005
   0.47169361  0.06738480  0.32719150       0.005
   0.13476960  0.13476960  0.32719150       0.002
   0.20215441  0.13476960  0.32719150       0.005
   0.26953921  0.13476960  0.32719150       0.005
   0.33692401  0.13476960  0.32719150       0.005
   0.40430881  0.13476960  0.32719150       0.005
   0.47169361  0.13476960  0.32719150       0.005
   0.20215441  0.20215441  0.32719150       0.002
   0.26953921  0.20215441  0.32719150       0.005
   0.33692401  0.20215441  0.32719150       0.005
   0.40430881  0.20215441  0.32719150       0.005
   0.47169361  0.20215441  0.32719150       0.005
   0.26953921  0.26953921  0.32719150       0.002
   0.33692401  0.26953921  0.32719150       0.005
   0.40430881  0.26953921  0.32719150       0.005
   0.47169361  0.26953921  0.32719150       0.005
   0.33692401  0.33692401  0.32719150       0.002
   0.40430881  0.33692401  0.32719150       0.005
   0.47169361  0.33692401  0.32719150       0.005
   0.40430881  0.40430881  0.32719150       0.002
   0.47169361  0.40430881  0.32719150       0.005
   0.47169361  0.47169361  0.32719150       0.002
   0.00000000  0.00000000  0.39262980       0.001
   0.06738480  0.00000000  0.39262980       0.002
   0.13476960  0.00000000  0.39262980       0.002
   0.20215441  0.00000000  0.39262980       0.002
   0.26953921  0.00000000  0.39262980       0.002
   0.33692401  0.00000000  0.39262980       0.002
   0.40430881  0.00000000  0.39262980       0.002
   0.47169361  0.00000000  0.39262980       0.002
   0.06738480  0.06738480  0.39262980       0.002
   0.13476960  0.06738480  0.39262980       0.005
   0.20215441  0.06738480  0.39262980       0.005
   0.26953921  0.06738480  0.39262980       0.005
   0.33692401  0.06738480  0.39262980       0.005
   0.40430881  0.06738480  0.39262980       0.005
   0.47169361  0.06738480  0.39262980       0.005
   0.13476960  0.13476960  0.39262980       0.002
   0.20215441  0.13476960  0.39262980       0.005
   0.26953921  0.13476960  0.39262980       0.005
   0.33692401  0.13476960  0.39262980       0.005
   0.40430881  0.13476960  0.39262980       0.005
   0.47169361  0.13476960  0.39262980       0.005
   0.20215441  0.20215441  0.39262980       0.002
   0.26953921  0.20215441  0.39262980       0.005
   0.33692401  0.20215441  0.39262980       0.005
   0.40430881  0.20215441  0.39262980       0.005
   0.47169361  0.20215441  0.39262980       0.005
   0.26953921  0.26953921  0.39262980       0.002
   0.33692401  0.26953921  0.39262980       0.005
   0.40430881  0.26953921  0.39262980       0.005
   0.47169361  0.26953921  0.39262980       0.005
   0.33692401  0.33692401  0.39262980       0.002
   0.40430881  0.33692401  0.39262980       0.005
   0.47169361  0.33692401  0.39262980       0.005
   0.40430881  0.40430881  0.39262980       0.002
   0.47169361  0.40430881  0.39262980       0.005
   0.47169361  0.47169361  0.39262980       0.002
   0.00000000  0.00000000  0.45806810       0.001
   0.06738480  0.00000000  0.45806810       0.002
   0.13476960  0.00000000  0.45806810       0.002
   0.20215441  0.00000000  0.45806810       0.002
   0.26953921  0.00000000  0.45806810       0.002
   0.33692401  0.00000000  0.45806810       0.002
   0.40430881  0.00000000  0.45806810       0.002
   0.47169361  0.00000000  0.45806810       0.002
   0.06738480  0.06738480  0.45806810       0.002
   0.13476960  0.06738480  0.45806810       0.005
   0.20215441  0.06738480  0.45806810       0.005
   0.26953921  0.06738480  0.45806810       0.005
   0.33692401  0.06738480  0.45806810       0.005
   0.40430881  0.06738480  0.45806810       0.005
   0.47169361  0.06738480  0.45806810       0.005
   0.13476960  0.13476960  0.45806810       0.002
   0.20215441  0.13476960  0.45806810       0.005
   0.26953921  0.13476960  0.45806810       0.005
   0.33692401  0.13476960  0.45806810       0.005
   0.40430881  0.13476960  0.45806810       0.005
   0.47169361  0.13476960  0.45806810       0.005
   0.20215441  0.20215441  0.45806810       0.002
   0.26953921  0.20215441  0.45806810       0.005
   0.33692401  0.20215441  0.45806810       0.005
   0.40430881  0.20215441  0.45806810       0.005
   0.47169361  0.20215441  0.45806810       0.005
   0.26953921  0.26953921  0.45806810       0.002
   0.33692401  0.26953921  0.45806810       0.005
   0.40430881  0.26953921  0.45806810       0.005
   0.47169361  0.26953921  0.45806810       0.005
   0.33692401  0.33692401  0.45806810       0.002
   0.40430881  0.33692401  0.45806810       0.005
   0.47169361  0.33692401  0.45806810       0.005
   0.40430881  0.40430881  0.45806810       0.002
   0.47169361  0.40430881  0.45806810       0.005
   0.47169361  0.47169361  0.45806810       0.002
 
 k-points in reciprocal lattice and weights: Ni7CoMn5CrSn2                           
   0.00000000  0.00000000  0.00000000       0.000
   0.06666667  0.00000000  0.00000000       0.001
   0.13333333  0.00000000  0.00000000       0.001
   0.20000000  0.00000000  0.00000000       0.001
   0.26666667  0.00000000  0.00000000       0.001
   0.33333333  0.00000000  0.00000000       0.001
   0.40000000  0.00000000  0.00000000       0.001
   0.46666667  0.00000000  0.00000000       0.001
   0.06666667  0.06666667  0.00000000       0.001
   0.13333333  0.06666667  0.00000000       0.002
   0.20000000  0.06666667  0.00000000       0.002
   0.26666667  0.06666667  0.00000000       0.002
   0.33333333  0.06666667  0.00000000       0.002
   0.40000000  0.06666667  0.00000000       0.002
   0.46666667  0.06666667  0.00000000       0.002
   0.13333333  0.13333333  0.00000000       0.001
   0.20000000  0.13333333  0.00000000       0.002
   0.26666667  0.13333333  0.00000000       0.002
   0.33333333  0.13333333  0.00000000       0.002
   0.40000000  0.13333333  0.00000000       0.002
   0.46666667  0.13333333  0.00000000       0.002
   0.20000000  0.20000000  0.00000000       0.001
   0.26666667  0.20000000  0.00000000       0.002
   0.33333333  0.20000000  0.00000000       0.002
   0.40000000  0.20000000  0.00000000       0.002
   0.46666667  0.20000000  0.00000000       0.002
   0.26666667  0.26666667  0.00000000       0.001
   0.33333333  0.26666667  0.00000000       0.002
   0.40000000  0.26666667  0.00000000       0.002
   0.46666667  0.26666667  0.00000000       0.002
   0.33333333  0.33333333  0.00000000       0.001
   0.40000000  0.33333333  0.00000000       0.002
   0.46666667  0.33333333  0.00000000       0.002
   0.40000000  0.40000000  0.00000000       0.001
   0.46666667  0.40000000  0.00000000       0.002
   0.46666667  0.46666667  0.00000000       0.001
   0.00000000  0.00000000  0.06666667       0.001
   0.06666667  0.00000000  0.06666667       0.002
   0.13333333  0.00000000  0.06666667       0.002
   0.20000000  0.00000000  0.06666667       0.002
   0.26666667  0.00000000  0.06666667       0.002
   0.33333333  0.00000000  0.06666667       0.002
   0.40000000  0.00000000  0.06666667       0.002
   0.46666667  0.00000000  0.06666667       0.002
   0.06666667  0.06666667  0.06666667       0.002
   0.13333333  0.06666667  0.06666667       0.005
   0.20000000  0.06666667  0.06666667       0.005
   0.26666667  0.06666667  0.06666667       0.005
   0.33333333  0.06666667  0.06666667       0.005
   0.40000000  0.06666667  0.06666667       0.005
   0.46666667  0.06666667  0.06666667       0.005
   0.13333333  0.13333333  0.06666667       0.002
   0.20000000  0.13333333  0.06666667       0.005
   0.26666667  0.13333333  0.06666667       0.005
   0.33333333  0.13333333  0.06666667       0.005
   0.40000000  0.13333333  0.06666667       0.005
   0.46666667  0.13333333  0.06666667       0.005
   0.20000000  0.20000000  0.06666667       0.002
   0.26666667  0.20000000  0.06666667       0.005
   0.33333333  0.20000000  0.06666667       0.005
[...]
    140      15.1924      0.00000
    141      15.1924      0.00000
    142      15.4121      0.00000
    143      15.4121      0.00000
    144      15.4343      0.00000
    145      18.2281      0.00000
    146      18.3039      0.00000
    147      18.3199      0.00000
    148      18.3199      0.00000
    149      22.4067      0.00000
    150      22.4067      0.00000


--------------------------------------------------------------------------------------------------------


 soft charge-density along one line, spin component           1
         0         1         2         3         4         5         6         7         8         9
 total charge-density along one line
 
 soft charge-density along one line, spin component           2
         0         1         2         3         4         5         6         7         8         9
 total charge-density along one line
 
 pseudopotential strength for first ion, spin component:           1
-44.970  -0.000   0.000   7.597   0.000  -0.000  -0.000   0.000
 -0.000 -45.014  -0.000   0.000   7.613   0.000   0.019   0.000
  0.000  -0.000 -44.970  -0.000   0.000   7.597   0.000   0.019
  7.597   0.000  -0.000   5.640   0.000  -0.000   0.000  -0.000
  0.000   7.613   0.000   0.000   5.638   0.000  -0.008  -0.000
 -0.000   0.000   7.597  -0.000   0.000   5.640  -0.000  -0.008
 -0.000   0.019   0.000   0.000  -0.008  -0.000  -2.118  -0.000
  0.000   0.000   0.019  -0.000  -0.000  -0.008  -0.000  -2.115
 -0.000   0.000   0.000   0.000  -0.000  -0.000  -0.000   0.000
  0.019  -0.000   0.000  -0.008   0.000  -0.000  -0.000   0.000
 -0.000   0.000  -0.000   0.000  -0.000   0.000   0.000   0.000
 -0.000   0.019   0.000   0.000  -0.007  -0.000  -2.632  -0.000
  0.000   0.000   0.019  -0.000  -0.000  -0.007  -0.000  -2.629
 -0.000   0.000   0.000   0.000  -0.000  -0.000  -0.000   0.000
  0.019  -0.000   0.000  -0.007   0.000  -0.000  -0.000   0.000
 -0.000   0.000  -0.000   0.000  -0.000   0.000   0.000   0.000
 -0.000  -0.000   0.000  -0.000  -0.000   0.000  -0.000   0.000
 -0.000  -0.000   0.000  -0.000  -0.000   0.000  -0.000   0.000
 pseudopotential strength for first ion, spin component:           2
-43.267  -0.000   0.000   6.878   0.000  -0.000  -0.000   0.000
 -0.000 -43.276  -0.000   0.000   6.882   0.000  -0.005   0.000
  0.000  -0.000 -43.267  -0.000   0.000   6.878   0.000  -0.005
  6.878   0.000  -0.000   5.841   0.000  -0.000   0.000  -0.000
  0.000   6.882   0.000   0.000   5.840   0.000   0.004  -0.000
 -0.000   0.000   6.878  -0.000   0.000   5.841  -0.000   0.004
 -0.000  -0.005   0.000   0.000   0.004  -0.000  -0.710   0.000
  0.000   0.000  -0.005  -0.000  -0.000   0.004   0.000  -0.746
 -0.000   0.000   0.000   0.000  -0.000  -0.000  -0.000  -0.000
 -0.005  -0.000   0.000   0.004   0.000  -0.000   0.000   0.000
 -0.000   0.000  -0.000   0.000  -0.000   0.000   0.000   0.000
 -0.000  -0.005   0.000   0.000   0.004  -0.000  -1.247   0.000
  0.000   0.000  -0.005  -0.000  -0.000   0.004   0.000  -1.283
 -0.000   0.000   0.000   0.000  -0.000  -0.000  -0.000  -0.000
 -0.005  -0.000   0.000   0.004   0.000  -0.000   0.000   0.000
 -0.000   0.000  -0.000   0.000  -0.000   0.000   0.000   0.000
 -0.000  -0.000   0.000  -0.000  -0.000   0.000  -0.000   0.000
 -0.000  -0.000   0.000  -0.000  -0.000   0.000  -0.000   0.000
 total augmentation occupancy for first ion, spin component:           1
  1.993   0.000   0.000  -0.023   0.000   0.000  -0.000   0.000  -0.000   0.000  -0.000  -0.000  -0.000   0.000  -0.001  -0.000
  0.000   1.993   0.000   0.000  -0.023   0.000   0.000  -0.000  -0.000   0.000  -0.000  -0.001   0.000   0.000  -0.000   0.000
  0.000   0.000   1.993   0.000   0.000  -0.023   0.000   0.000   0.000   0.000  -0.000   0.000  -0.001   0.000   0.000   0.000
 -0.023  -0.000   0.000   0.189   0.000   0.000   0.000   0.000   0.000  -0.047  -0.000  -0.000   0.000  -0.000   0.006   0.000
 -0.000  -0.023   0.000  -0.000   0.180  -0.000  -0.044   0.000  -0.000  -0.000  -0.000   0.004   0.000  -0.000  -0.000   0.000
  0.000  -0.000  -0.023   0.000   0.000   0.189   0.000  -0.047  -0.000   0.000   0.000   0.000   0.006  -0.000   0.000   0.000
  0.000   0.000   0.000  -0.000  -0.044   0.000   2.263  -0.000   0.000   0.000   0.000  -1.292   0.000   0.000  -0.000  -0.000
  0.000  -0.000   0.000  -0.000   0.000  -0.047  -0.000   2.196  -0.000   0.000  -0.000  -0.000  -1.261   0.000   0.000   0.000
  0.000   0.000   0.000   0.000   0.000   0.000   0.000  -0.000   2.449  -0.000  -0.000  -0.000  -0.000  -1.443   0.000   0.000
  0.000   0.000  -0.000  -0.047  -0.000  -0.000  -0.000   0.000   0.000   2.196  -0.000   0.000  -0.000   0.000  -1.261  -0.000
  0.000  -0.000   0.000  -0.000  -0.000   0.000   0.000  -0.000   0.000   0.000   2.216  -0.000  -0.000   0.000   0.000  -1.284
 -0.000  -0.001   0.000   0.000   0.004  -0.000  -1.292  -0.000   0.000   0.000  -0.000   1.712   0.000   0.000  -0.000   0.000
 -0.000   0.000  -0.001   0.000   0.000   0.006   0.000  -1.261  -0.000  -0.000   0.000   0.000   1.730  -0.000  -0.000   0.000
 -0.000   0.000  -0.000  -0.000  -0.000   0.000  -0.000  -0.000  -1.443   0.000   0.000  -0.000  -0.000   1.689   0.000  -0.000
 -0.001   0.000   0.000   0.006  -0.000  -0.000  -0.000   0.000   0.000  -1.261  -0.000  -0.000   0.000   0.000   1.730   0.000
 -0.000   0.000  -0.000  -0.000   0.000  -0.000   0.000   0.000   0.000   0.000  -1.284  -0.000  -0.000   0.000  -0.000   1.634
  0.000   0.000  -0.000   0.000   0.000   0.000   0.000   0.000   0.010  -0.000   0.000   0.000   0.000  -0.027   0.000   0.000
  0.000   0.000   0.000   0.000   0.000   0.000   0.000   0.000   0.005  -0.000   0.000  -0.000   0.000  -0.002  -0.000  -0.000
 total augmentation occupancy for first ion, spin component:           2
 -0.002   0.000   0.000  -0.007   0.000   0.000   0.000   0.000   0.000  -0.009  -0.000   0.000   0.000   0.000   0.009  -0.000
  0.000  -0.002   0.000   0.000  -0.007   0.000  -0.009   0.000   0.000   0.000  -0.000   0.009   0.000   0.000  -0.000   0.000
  0.000   0.000  -0.002   0.000   0.000  -0.007   0.000  -0.009  -0.000  -0.000   0.000  -0.000   0.009   0.000  -0.000  -0.000
 -0.007   0.000   0.000  -0.012   0.000   0.000   0.000   0.000   0.000   0.056  -0.000   0.000   0.000   0.000  -0.011   0.000
  0.000  -0.007   0.000   0.000  -0.007   0.000   0.058   0.000  -0.000  -0.000  -0.000  -0.013   0.000   0.000   0.000   0.000
  0.000   0.000  -0.007   0.000   0.000  -0.012   0.000   0.056  -0.000  -0.000   0.000   0.000  -0.011   0.000  -0.000   0.000
 -0.000  -0.009   0.000   0.000   0.058   0.000   1.475  -0.000   0.000   0.000  -0.000  -0.458   0.000   0.000   0.000   0.000
 -0.000   0.000  -0.009   0.000   0.000   0.056   0.000   1.381   0.000   0.000  -0.000   0.000  -0.424   0.000  -0.000   0.000
  0.000   0.000  -0.000   0.000   0.000   0.000  -0.000  -0.000   1.926  -0.000   0.000  -0.000   0.000  -0.645  -0.000   0.000
 -0.009   0.000   0.000   0.056  -0.000  -0.000  -0.000   0.000   0.000   1.381   0.000  -0.000   0.000   0.000  -0.424   0.000
  0.000  -0.000  -0.000   0.000  -0.000  -0.000  -0.000  -0.000   0.000  -0.000   1.733   0.000   0.000  -0.000   0.000  -0.565
  0.000   0.009  -0.000   0.000  -0.013   0.000  -0.458  -0.000  -0.000  -0.000  -0.000  -0.109   0.000  -0.000   0.000   0.000
  0.000   0.000   0.009  -0.000   0.000  -0.011   0.000  -0.424   0.000  -0.000  -0.000   0.000  -0.115   0.000   0.000   0.000
 -0.000   0.000  -0.000   0.000   0.000  -0.000  -0.000   0.000  -0.645   0.000   0.000   0.000  -0.000  -0.025   0.000  -0.000
  0.009   0.000  -0.000  -0.011  -0.000   0.000   0.000   0.000  -0.000  -0.424   0.000  -0.000  -0.000   0.000  -0.115   0.000
 -0.000   0.000  -0.000   0.000   0.000  -0.000   0.000   0.000  -0.000   0.000  -0.565   0.000  -0.000  -0.000   0.000  -0.084
  0.000   0.000   0.000   0.000   0.000   0.000   0.000   0.000   0.021   0.000   0.000  -0.000   0.000   0.005   0.000   0.000
  0.000   0.000   0.000   0.000   0.000   0.000   0.000   0.000   0.004  -0.000  -0.000  -0.000  -0.000  -0.001  -0.000  -0.000


------------------------ aborting loop because EDIFF is reached ----------------------------------------





 total charge

# of ion       s       p       d       tot
------------------------------------------
    1        0.334   6.349   6.168  12.851
    2        0.334   6.349   6.168  12.851
    3        0.334   6.349   6.168  12.851
    4        0.334   6.349   6.168  12.851
    5        0.370   6.352   6.054  12.775
    6        0.370   6.352   6.054  12.775
    7        0.370   6.352   6.054  12.775
    8        0.370   6.352   6.054  12.775
    9        0.426   6.460   7.410  14.296
   10        0.426   6.460   7.410  14.296
   11        0.426   6.460   7.410  14.296
   12        0.426   6.460   7.410  14.296
   13        0.865   0.927  10.043  11.835
   14        0.865   0.927  10.043  11.835
   15        0.865   0.927  10.043  11.835
   16        0.865   0.927  10.043  11.835
--------------------------------------------------
tot          7.980  80.351 118.698 207.029



 magnetization (x)

# of ion       s       p       d       tot
------------------------------------------
    1       -0.003  -0.022   2.021   1.996
    2       -0.003  -0.022   2.021   1.996
    3       -0.003  -0.022   2.021   1.996
    4       -0.003  -0.022   2.021   1.996
    5        0.001  -0.018   2.611   2.594
    6        0.001  -0.018   2.611   2.594
    7        0.001  -0.018   2.611   2.594
    8        0.001  -0.018   2.611   2.594
    9       -0.011  -0.032   1.049   1.005
   10       -0.011  -0.032   1.049   1.005
   11       -0.011  -0.032   1.049   1.005
   12       -0.011  -0.032   1.049   1.005
   13       -0.006  -0.075  -0.008  -0.089
   14       -0.006  -0.075  -0.008  -0.089
   15       -0.006  -0.075  -0.008  -0.089
   16       -0.006  -0.075  -0.008  -0.089
--------------------------------------------------
tot         -0.079  -0.589  22.690  22.022
 
    CHARGE:  cpu time    4.1363: real time    4.1461
    FORLOC:  cpu time    0.0000: real time    0.0037
    FORNL :  cpu time   39.1704: real time   39.2837
    STRESS:  cpu time  117.9794: real time  118.3299
    FORCOR:  cpu time    0.0520: real time    0.0522
    FORHAR:  cpu time    0.0080: real time    0.0076
    MIXING:  cpu time    0.0000: real time    0.0019
    OFIELD:  cpu time    0.0000: real time    0.0000

  FORCE on cell =-STRESS in cart. coord.  units (eV):
  Direction    XX          YY          ZZ          XY          YZ          ZX
  --------------------------------------------------------------------------------------
  Alpha Z  1844.68727  1844.68727  1844.68727
  Ewald   -9528.51349 -9528.51349 -9622.44595     0.00000    -0.00000    -0.00000
  Hartree  2969.73852  2969.73852  2887.02146    -0.00000    -0.00000    -0.00000
  E(xc)   -1431.07985 -1431.07985 -1431.12176     0.00000    -0.00000    -0.00000
  Local    2357.31419  2357.31419  2540.74302    -0.00000     0.00000     0.00000
  n-local  -327.00938  -327.38029  -326.53600    -0.72704    -1.55313     0.20050
  augment  2209.54119  2209.54119  2205.10527     0.00000     0.00003     0.00003
  Kinetic  1904.75872  1905.90422  1902.43303    -1.93069    -2.88973     0.11824
  Fock        0.00000     0.00000     0.00000     0.00000     0.00000     0.00000
  -------------------------------------------------------------------------------------
  Total      -0.17554    -0.17554    -0.11367     0.00000     0.00000     0.00000
  in kB      -1.49133    -1.49133    -0.96575     0.00000     0.00000     0.00000
  external pressure =       -1.32 kB  Pullay stress =        0.00 kB


 VOLUME and BASIS-vectors are now :
 -----------------------------------------------------------------------------
  energy-cutoff  :      500.00
  volume of cell :      188.58
      direct lattice vectors                 reciprocal lattice vectors
     5.678827511  0.000000000  0.000000000     0.176092688  0.000000000  0.000000000
     0.000000000  5.678827511  0.000000000     0.000000000  0.176092688  0.000000000
     0.000000000  0.000000000  5.847747650     0.000000000  0.000000000  0.171006011

  length of vectors
     5.678827511  5.678827511  5.847747650     0.176092688  0.176092688  0.171006011


 FORCES acting on ions
    electron-ion (+dipol)            ewald-force                    non-local-force                 convergence-correction
 -----------------------------------------------------------------------------------------------
   -.942E-13 0.167E-11 0.159E-11   -.853E-13 -.284E-13 -.142E-12   -.347E-17 0.000E+00 -.217E-18   0.476E-12 -.601E-13 0.164E-12
   -.400E-13 -.833E-13 0.159E-11   -.568E-13 -.284E-13 -.853E-13   -.867E-18 0.867E-18 0.000E+00   0.429E-12 -.478E-13 0.236E-12
   0.173E-11 0.100E-10 -.580E-11   -.284E-13 -.284E-13 -.853E-13   0.260E-17 0.867E-18 0.000E+00   -.475E-12 -.906E-13 0.271E-12
   0.164E-11 -.814E-13 -.419E-11   -.171E-12 -.284E-13 -.142E-12   0.000E+00 0.000E+00 -.217E-18   -.375E-12 0.158E-13 0.160E-12
   0.738E-12 0.280E-11 -.852E+02   -.124E-12 0.227E-13 0.863E+02   0.000E+00 -.271E-19 -.106E+01   -.156E-12 0.718E-13 0.722E-02
   0.235E-11 0.780E-11 -.852E+02   -.118E-12 0.166E-13 0.863E+02   0.000E+00 -.271E-19 -.106E+01   0.453E-13 -.864E-13 0.722E-02
   0.722E-12 0.107E-12 0.852E+02   -.517E-13 -.118E-14 -.863E+02   0.000E+00 0.108E-18 0.106E+01   -.222E-12 -.114E-12 -.722E-02
   0.234E-11 0.120E-10 0.852E+02   -.450E-13 0.544E-14 -.863E+02   0.000E+00 0.108E-18 0.106E+01   0.379E-13 -.411E-13 -.722E-02
   0.243E-11 0.186E-11 -.205E-10   0.142E-12 0.568E-13 -.284E-13   0.000E+00 0.434E-18 0.000E+00   -.438E-12 -.102E-12 -.283E-13
   0.460E-12 -.875E-13 -.403E-12   0.114E-12 0.568E-13 -.284E-13   0.000E+00 0.434E-18 0.000E+00   0.668E-12 -.654E-13 -.723E-13
   0.137E-11 -.100E-12 -.314E-10   0.853E-13 0.853E-13 -.284E-13   0.000E+00 -.434E-18 0.867E-18   -.578E-12 0.762E-14 0.634E-13
   -.600E-12 0.188E-11 -.398E-12   0.853E-13 0.853E-13 -.284E-13   0.000E+00 -.434E-18 0.867E-18   0.442E-12 -.927E-13 0.673E-13
   0.498E-12 0.943E-12 -.981E+02   0.541E-13 -.592E-13 0.977E+02   0.542E-19 0.379E-18 0.419E+00   -.256E-12 -.301E-13 0.832E-02
   0.476E-12 -.360E-11 0.981E+02   0.278E-14 -.290E-13 -.977E+02   0.000E+00 -.163E-18 -.419E+00   -.140E-12 0.151E-12 -.832E-02
   0.164E-11 0.935E-11 -.981E+02   0.816E-13 -.512E-13 0.977E+02   0.542E-19 -.271E-18 0.419E+00   -.113E-13 0.532E-13 0.832E-02
   0.163E-11 0.430E-11 0.981E+02   0.877E-13 -.609E-13 -.977E+02   0.000E+00 0.488E-18 -.419E+00   0.641E-13 0.823E-15 -.832E-02
 -----------------------------------------------------------------------------------------------
   0.173E-10 0.487E-10 -.700E-10   -.277E-13 0.137E-13 0.853E-13   -.163E-17 0.233E-17 0.222E-15   -.490E-12 -.430E-12 0.244E-11
 
 
 POSITION                                       TOTAL-FORCE (eV/Angst)
 -----------------------------------------------------------------------------------
      0.00000      2.83941      2.92387        -0.000000      0.000000      0.000000
      0.00000      0.00000      2.92387         0.000000     -0.000000      0.000000
      2.83941      2.83941      2.92387        -0.000000     -0.000000      0.000000
      2.83941      0.00000      2.92387        -0.000000      0.000000      0.000000
      1.41971      4.25912      1.46730        -0.000000      0.000000      0.016413
      4.25912      1.41971      1.46730        -0.000000      0.000000      0.016413
      1.41971      1.41971      4.38045         0.000000      0.000000     -0.016413
      4.25912      4.25912      4.38045         0.000000      0.000000     -0.016413
      2.83941      2.83941      0.00000        -0.000000     -0.000000      0.000000
      0.00000      0.00000      0.00000         0.000000      0.000000      0.000000
      2.83941      0.00000      0.00000        -0.000000     -0.000000      0.000000
      0.00000      2.83941      0.00000        -0.000000     -0.000000      0.000000
      1.41971      1.41971      1.42269         0.000000     -0.000000      0.003976
      1.41971      4.25912      4.42505        -0.000000     -0.000000     -0.003976
      4.25912      4.25912      1.42269        -0.000000     -0.000000      0.003976
      4.25912      1.41971      4.42505        -0.000000     -0.000000     -0.003976
 -----------------------------------------------------------------------------------
    total drift:                                0.000000      0.000000     -0.000000


--------------------------------------------------------------------------------------------------------



  FREE ENERGIE OF THE ION-ELECTRON SYSTEM (eV)
  ---------------------------------------------------
  free  energy   TOTEN  =      -108.30377713 eV

  energy  without entropy=     -108.30279524  energy(sigma->0) =     -108.30344983
 


--------------------------------------------------------------------------------------------------------


    POTLOK:  cpu time    0.1720: real time    0.1736


--------------------------------------------------------------------------------------------------------


     LOOP+:  cpu time 4318.3259: real time 4331.9982
    4ORBIT:  cpu time    0.0000: real time    0.0000



 total charge

# of ion       s       p       d       tot
------------------------------------------
    1        0.334   6.349   6.168  12.851
    2        0.334   6.349   6.168  12.851
    3        0.334   6.349   6.168  12.851
    4        0.334   6.349   6.168  12.851
    5        0.370   6.352   6.054  12.775
    6        0.370   6.352   6.054  12.775
    7        0.370   6.352   6.054  12.775
    8        0.370   6.352   6.054  12.775
    9        0.426   6.460   7.410  14.296
   10        0.426   6.460   7.410  14.296
   11        0.426   6.460   7.410  14.296
   12        0.426   6.460   7.410  14.296
   13        0.865   0.927  10.043  11.835
   14        0.865   0.927  10.043  11.835
   15        0.865   0.927  10.043  11.835
   16        0.865   0.927  10.043  11.835
--------------------------------------------------
tot          7.980  80.351 118.698 207.029



 magnetization (x)

# of ion       s       p       d       tot
------------------------------------------
    1       -0.003  -0.022   2.021   1.996
    2       -0.003  -0.022   2.021   1.996
    3       -0.003  -0.022   2.021   1.996
    4       -0.003  -0.022   2.021   1.996
    5        0.001  -0.018   2.611   2.594
    6        0.001  -0.018   2.611   2.594
    7        0.001  -0.018   2.611   2.594
    8        0.001  -0.018   2.611   2.594
    9       -0.011  -0.032   1.049   1.005
   10       -0.011  -0.032   1.049   1.005
   11       -0.011  -0.032   1.049   1.005
   12       -0.011  -0.032   1.049   1.005
   13       -0.006  -0.075  -0.008  -0.089
   14       -0.006  -0.075  -0.008  -0.089
   15       -0.006  -0.075  -0.008  -0.089
   16       -0.006  -0.075  -0.008  -0.089
--------------------------------------------------
tot         -0.079  -0.589  22.690  22.022
 

 total amount of memory used by VASP MPI-rank0   398365. kBytes
=======================================================================

   base      :      30000. kBytes
   nonlr-proj:       5747. kBytes
   fftplans  :       5968. kBytes
   grid      :       5397. kBytes
   one-center:        124. kBytes
   wavefun   :     351129. kBytes
 
  
  
 General timing and accounting informations for this job:
 ========================================================
  
                  Total CPU time used (sec):     4369.257
                            User time (sec):     4357.812
                          System time (sec):       11.445
                         Elapsed time (sec):     4384.322
  
                   Maximum memory used (kb):      456820.
                   Average memory used (kb):          N/A
  
                          Minor page faults:       115894
                          Major page faults:            0
                 Voluntary context switches:         3756
