 vasp.6.1.1 19Jun20 (build Jan 21 2021 08:43:03) complex                        
  
 executed on             LinuxIFC date 2023.06.13  14:13:35
 running on   20 total cores
 distrk:  each k-point on   20 cores,    1 groups
 distr:  one band on NCORE=   4 cores,    5 groups


--------------------------------------------------------------------------------------------------------


 INCAR:
 POTCAR:    PAW_PBE Fe_pv 02Aug2007               
 POTCAR:    PAW_PBE Co_pv 23Apr2009               
 POTCAR:      PAW_PBE In 08Apr2002                
 -----------------------------------------------------------------------------
|                                                                             |
|           W    W    AA    RRRRR   N    N  II  N    N   GGGG   !!!           |
|           W    W   A  A   R    R  NN   N  II  NN   N  G    G  !!!           |
|           W    W  A    A  R    R  N N  N  II  N N  N  G       !!!           |
|           W WW W  AAAAAA  RRRRR   N  N N  II  N  N N  G  GGG   !            |
|           WW  WW  A    A  R   R   N   NN  II  N   NN  G    G                |
|           W    W  A    A  R    R  N    N  II  N    N   GGGG   !!!           |
|                                                                             |
|     The value NPAR = 6 specified in the INCAR file was overwritten,         |
|     because it was not compatible with the 20 processes available:          |
|     NPAR = 5                                                                |
|     was used instead, please check that this makes sense for your           |
|     machine.                                                                |
|                                                                             |
 -----------------------------------------------------------------------------

 POTCAR:    PAW_PBE Fe_pv 02Aug2007               
   VRHFIN =Fe:  3pd7s1                                                                              
   LEXCH  = PE                                                                                      
   EATOM  =  2457.4239 eV,  180.6156 Ry                                                             
                                                                                                    
   TITEL  = PAW_PBE Fe_pv 02Aug2007                                                                 
   LULTRA =        F    use ultrasoft PP ?                                                          
   IUNSCR =        1    unscreen: 0-lin 1-nonlin 2-no                                               
   RPACOR =    1.750    partial core radius                                                         
   POMASS =   55.847; ZVAL   =   14.000    mass and valenz                                          
   RCORE  =    2.200    outmost cutoff radius                                                       
   RWIGS  =    2.200; RWIGS  =    1.164    wigner-seitz radius (au A)                               
   ENMAX  =  293.238; ENMIN  =  219.928 eV                                                          
   ICORE  =        3    local potential                                                             
   LCOR   =        T    correct aug charges                                                         
   LPAW   =        T    paw PP                                                                      
   EAUG   =  578.342                                                                                
   DEXC   =    0.000                                                                                
   RMAX   =    2.249    core radius for proj-oper                                                   
   RAUG   =    1.300    factor for augmentation sphere                                              
   RDEP   =    2.296    radius for radial grids                                                     
   RDEPT  =    1.766    core radius for aug-charge                                                  
                                                                                                    
   Atomic configuration                                                                             
    8 entries                                                                                       
     n  l   j            E        occ.                                                              
     1  0  0.50     -6993.8440   2.0000                                                             
     2  0  0.50      -814.6047   2.0000                                                             
     2  1  1.50      -693.3689   6.0000                                                             
     3  0  0.50       -89.4732   2.0000                                                             
     3  1  1.50       -55.6373   6.0000                                                             
     3  2  2.50        -3.8151   7.0000                                                             
     4  0  0.50        -4.2551   1.0000                                                             
     4  3  2.50        -1.3606   0.0000                                                             
   Description                                                                                      
     l       E           TYP  RCUT    TYP  RCUT                                                     
     1    -55.6372668     23  2.000                                                                 
     1     -5.4423304     23  2.000                                                                 
     2     -3.8151096     23  2.200                                                                 
     2     -5.1756922     23  2.200                                                                 
     0     -4.2550951     23  2.200                                                                 
     0     27.2116520     23  2.200                                                                 
     3     -1.3605826     23  2.200                                                                 
  local pseudopotential read in
  partial core-charges read in
  partial kinetic energy density read in
  atomic valenz-charges read in
  non local Contribution for L=           1  read in
    real space projection operators read in
  non local Contribution for L=           1  read in
    real space projection operators read in
  non local Contribution for L=           2  read in
    real space projection operators read in
  non local Contribution for L=           2  read in
    real space projection operators read in
  non local Contribution for L=           0  read in
    real space projection operators read in
  non local Contribution for L=           0  read in
    real space projection operators read in
    PAW grid and wavefunctions read in
 
   number of l-projection  operators is LMAX  =           6
   number of lm-projection operators is LMMAX =          18
 
 POTCAR:    PAW_PBE Co_pv 23Apr2009               
   VRHFIN =Co: 3pd7s1                                                                               
   LEXCH  = PE                                                                                      
   EATOM  =  2948.1334 eV,  216.6817 Ry                                                             
                                                                                                    
   TITEL  = PAW_PBE Co_pv 23Apr2009                                                                 
   LULTRA =        F    use ultrasoft PP ?                                                          
   IUNSCR =        1    unscreen: 0-lin 1-nonlin 2-no                                               
   RPACOR =    2.000    partial core radius                                                         
   POMASS =   58.933; ZVAL   =   15.000    mass and valenz                                          
   RCORE  =    2.300    outmost cutoff radius                                                       
   RWIGS  =    2.460; RWIGS  =    1.302    wigner-seitz radius (au A)                               
   ENMAX  =  271.042; ENMIN  =  203.281 eV                                                          
   ICORE  =        3    local potential                                                             
   LCOR   =        T    correct aug charges                                                         
   LPAW   =        T    paw PP                                                                      
   EAUG   =  543.066                                                                                
   DEXC   =    0.000                                                                                
   RMAX   =    2.360    core radius for proj-oper                                                   
   RAUG   =    1.300    factor for augmentation sphere                                              
   RDEP   =    2.393    radius for radial grids                                                     
   RDEPT  =    1.841    core radius for aug-charge                                                  
                                                                                                    
   Atomic configuration                                                                             
    8 entries                                                                                       
     n  l   j            E        occ.                                                              
     1  0  0.50     -7587.6674   2.0000                                                             
     2  0  0.50      -893.6084   2.0000                                                             
     2  1  1.50      -764.5805   6.0000                                                             
     3  0  0.50       -97.5973   2.0000                                                             
     3  1  1.50       -60.9648   6.0000                                                             
     3  2  2.50        -4.2382   8.0000                                                             
     4  0  0.50        -4.3746   1.0000                                                             
     4  3  2.50        -1.3606   0.0000                                                             
   Description                                                                                      
     l       E           TYP  RCUT    TYP  RCUT                                                     
     1    -60.9647990     23  2.000                                                                 
     1     -5.4423304     23  2.000                                                                 
     2     -4.2382362     23  2.300                                                                 
     2     -5.5988188     23  2.300                                                                 
     0     -4.3745797     23  2.300                                                                 
     0      5.7660125     23  2.300                                                                 
     3     -1.3605826     23  2.300                                                                 
  local pseudopotential read in
  partial core-charges read in
  partial kinetic energy density read in
  atomic valenz-charges read in
  non local Contribution for L=           1  read in
    real space projection operators read in
  non local Contribution for L=           1  read in
    real space projection operators read in
  non local Contribution for L=           2  read in
    real space projection operators read in
  non local Contribution for L=           2  read in
    real space projection operators read in
  non local Contribution for L=           0  read in
    real space projection operators read in
  non local Contribution for L=           0  read in
    real space projection operators read in
    PAW grid and wavefunctions read in
 
   number of l-projection  operators is LMAX  =           6
   number of lm-projection operators is LMMAX =          18
 
 POTCAR:      PAW_PBE In 08Apr2002                
   VRHFIN =In: s2p1                                                                                 
   LEXCH  = PE                                                                                      
   EATOM  =    53.7908 eV,    3.9535 Ry                                                             
                                                                                                    
   TITEL  = PAW_PBE In 08Apr2002                                                                    
   LULTRA =        F    use ultrasoft PP ?                                                          
   IUNSCR =        1    unscreen: 0-lin 1-nonlin 2-no                                               
   RPACOR =    2.400    partial core radius                                                         
   POMASS =  114.820; ZVAL   =    3.000    mass and valenz                                          
   RCORE  =    3.100    outmost cutoff radius                                                       
   RWIGS  =    3.170; RWIGS  =    1.677    wigner-seitz radius (au A)                               
   ENMAX  =   95.934; ENMIN  =   71.951 eV                                                          
   ICORE  =        3    local potential                                                             
   LCOR   =        T    correct aug charges                                                         
   LPAW   =        T    paw PP                                                                      
   EAUG   =  237.125                                                                                
   DEXC   =    0.000                                                                                
   RMAX   =    3.168    core radius for proj-oper                                                   
   RAUG   =    1.300    factor for augmentation sphere                                              
   RDEP   =    3.187    radius for radial grids                                                     
   RDEPT  =    2.711    core radius for aug-charge                                                  
                                                                                                    
   Atomic configuration                                                                             
   13 entries                                                                                       
     n  l   j            E        occ.                                                              
     1  0  0.50    -27747.9169   2.0000                                                             
     2  0  0.50     -4154.4438   2.0000                                                             
     2  1  1.50     -3728.4305   6.0000                                                             
     3  0  0.50      -788.3680   2.0000                                                             
     3  1  1.50      -648.9215   6.0000                                                             
     3  2  2.50      -432.5893  10.0000                                                             
     4  0  0.50      -119.6363   2.0000                                                             
     4  1  1.50       -78.1086   6.0000                                                             
     4  2  2.50       -18.6227  10.0000                                                             
     5  0  0.50        -8.2107   2.0000                                                             
     5  1  0.50        -2.5185   1.0000                                                             
     5  2  2.50        -1.3606   0.0000                                                             
     4  3  2.50        -2.7212   0.0000                                                             
   Description                                                                                      
     l       E           TYP  RCUT    TYP  RCUT                                                     
     0     -8.2107306     23  3.100                                                                 
     0     -6.1485975     23  3.100                                                                 
     1     -2.5184867     23  3.100                                                                 
     1      3.2427302     23  3.100                                                                 
     2     -1.3605826     23  3.100                                                                 
     3     -1.3605826     23  3.100                                                                 
  local pseudopotential read in
  partial core-charges read in
  partial kinetic energy density read in
  atomic valenz-charges read in
  non local Contribution for L=           0  read in
    real space projection operators read in
  non local Contribution for L=           0  read in
    real space projection operators read in
  non local Contribution for L=           1  read in
    real space projection operators read in
  non local Contribution for L=           1  read in
    real space projection operators read in
  non local Contribution for L=           2  read in
    real space projection operators read in
    PAW grid and wavefunctions read in
 
   number of l-projection  operators is LMAX  =           5
   number of lm-projection operators is LMMAX =          13
 
 Optimization of the real space projectors (new method)

 maximal supplied QI-value         = 17.01
 optimisation between [QCUT,QGAM] = [ 11.40, 22.79] = [ 36.36,145.44] Ry 
 Optimized for a Real-space Cutoff    1.47 Angstroem

   l    n(q)    QCUT    max X(q) W(low)/X(q) W(high)/X(q)  e(spline) 
   1     10    11.395     4.267    0.90E-04    0.11E-03    0.18E-06
   1     10    11.395     5.750    0.14E-03    0.15E-03    0.25E-06
   2      9    11.395    53.656    0.13E-03    0.36E-04    0.15E-06
   2      9    11.395    49.521    0.14E-03    0.36E-04    0.15E-06
   0     10    11.395    31.246    0.58E-04    0.17E-05    0.98E-07
   0     10    11.395    12.201    0.41E-04    0.11E-05    0.82E-07
 Optimization of the real space projectors (new method)

 maximal supplied QI-value         = 16.25
 optimisation between [QCUT,QGAM] = [ 11.38, 22.75] = [ 36.24,144.96] Ry 
 Optimized for a Real-space Cutoff    1.47 Angstroem

   l    n(q)    QCUT    max X(q) W(low)/X(q) W(high)/X(q)  e(spline) 
   1     10    11.376     4.946    0.88E-04    0.16E-03    0.15E-06
   1     10    11.376     5.991    0.13E-03    0.24E-03    0.21E-06
   2      9    11.376    46.947    0.87E-04    0.91E-04    0.20E-06
   2      9    11.376    42.928    0.91E-04    0.94E-04    0.20E-06
   0     10    11.376    68.324    0.58E-04    0.21E-04    0.82E-07
   0     10    11.376    36.926    0.52E-04    0.19E-04    0.78E-07
 Optimization of the real space projectors (new method)

 maximal supplied QI-value         = 12.09
 optimisation between [QCUT,QGAM] = [ 11.37, 22.86] = [ 36.19,146.31] Ry 
 Optimized for a Real-space Cutoff    1.66 Angstroem

   l    n(q)    QCUT    max X(q) W(low)/X(q) W(high)/X(q)  e(spline) 
   0     11    11.369   106.980    0.13E-03    0.70E-04    0.20E-05
   0     11    11.369    81.086    0.14E-03    0.77E-04    0.22E-05
   1     11    11.369    53.097    0.15E-03    0.30E-03    0.86E-06
   1     11    11.369    32.621    0.14E-03    0.28E-03    0.81E-06
   2     10    11.369     8.820    0.13E-03    0.44E-04    0.34E-06
  PAW_PBE Fe_pv 02Aug2007               :
 energy of atom  1       EATOM=-2457.4239
 kinetic energy error for atom=    0.0069 (will be added to EATOM!!)
  PAW_PBE Co_pv 23Apr2009               :
 energy of atom  2       EATOM=-2948.1334
 kinetic energy error for atom=    0.0060 (will be added to EATOM!!)
    PAW_PBE In 08Apr2002                :
 energy of atom  3       EATOM=  -53.7908
 kinetic energy error for atom=    0.0000 (will be added to EATOM!!)
 
 
 POSCAR: Heusler tetragonal
  positions in direct lattice
  velocities in cartesian coordinates
 exchange correlation table for  LEXCH =        8
   RHO(1)=    0.500       N(1)  =     2000
   RHO(2)=  100.500       N(2)  =     4000
 


--------------------------------------------------------------------------------------------------------


 ion  position               nearest neighbor table
   1  0.500  0.000  0.500-   5 2.60   6 2.60   7 2.60   8 2.60  13 2.63  14 2.63  15 2.63  16 2.63

   2  0.500  0.000  0.000-   5 2.60   6 2.60   7 2.60   8 2.60  13 2.63  14 2.63  15 2.63  16 2.63

   3  0.000  0.000  0.500-   5 2.60   6 2.60   7 2.60   8 2.60  13 2.60  14 2.60  15 2.60  16 2.60

   4  0.500  0.500  0.000-   5 2.60   6 2.60   7 2.60   8 2.60  13 2.60  14 2.60  15 2.60  16 2.60

   5  0.251  0.249  0.750-   1 2.60   2 2.60   3 2.60   4 2.60  10 2.60  12 2.60  11 2.61   9 2.61

   6  0.251  0.751  0.250-   1 2.60   2 2.60   3 2.60   4 2.60  10 2.60  12 2.60  11 2.61   9 2.61

   7  0.749  0.249  0.250-   1 2.60   2 2.60   3 2.60   4 2.60  10 2.60  12 2.60  11 2.61   9 2.61

   8  0.749  0.751  0.750-   1 2.60   2 2.60   3 2.60   4 2.60  10 2.60  12 2.60  11 2.61   9 2.61

   9  0.000  0.500  0.500-  13 2.58  14 2.58  15 2.58  16 2.58   5 2.61   6 2.61   7 2.61   8 2.61

  10  0.000  0.000  0.000-   5 2.60   6 2.60   7 2.60   8 2.60  13 2.60  14 2.60  15 2.60  16 2.60

  11  0.000  0.500  0.000-  13 2.58  14 2.58  15 2.58  16 2.58   5 2.61   6 2.61   7 2.61   8 2.61

  12  0.500  0.500  0.500-   5 2.60   6 2.60   7 2.60   8 2.60  13 2.60  14 2.60  15 2.60  16 2.60

  13  0.246  0.254  0.250-   9 2.58  11 2.58   3 2.60  10 2.60   4 2.60  12 2.60   1 2.63   2 2.63

  14  0.754  0.254  0.750-   9 2.58  11 2.58   3 2.60  10 2.60   4 2.60  12 2.60   1 2.63   2 2.63

  15  0.246  0.746  0.750-   9 2.58  11 2.58   3 2.60  10 2.60   4 2.60  12 2.60   1 2.63   2 2.63

  16  0.754  0.746  0.250-   9 2.58  11 2.58   3 2.60  10 2.60   4 2.60  12 2.60   1 2.63   2 2.63

 
  LATTYP: Found a simple tetragonal cell.
 ALAT       =     6.0108612211
 C/A-ratio  =     1.0005040631
  
  Lattice vectors:
  
 A1 = (   6.0108612211,   0.0000000000,   0.0000000000)
 A2 = (   0.0000000000,   6.0108612211,   0.0000000000)
 A3 = (   0.0000000000,   0.0000000000,   6.0138910746)


Analysis of symmetry for initial positions (statically):
=====================================================================
 Subroutine PRICEL returns:
 Original cell was already a primitive cell.
 

 Routine SETGRP: Setting up the symmetry group for a 
 simple tetragonal supercell.


 Subroutine GETGRP returns: Found  8 space group operations
 (whereof  4 operations were pure point group operations)
 out of a pool of 16 trial point group operations.


The static configuration has the point symmetry D_2 .
 The point group associated with its full space group is D_4 .


Analysis of symmetry for dynamics (positions and initial velocities):
=====================================================================
 Subroutine PRICEL returns:
 Original cell was already a primitive cell.
 

 Routine SETGRP: Setting up the symmetry group for a 
 simple tetragonal supercell.


 Subroutine GETGRP returns: Found  8 space group operations
 (whereof  4 operations were pure point group operations)
 out of a pool of 16 trial point group operations.


The dynamic configuration has the point symmetry D_2 .
 The point group associated with its full space group is D_4 .


Analysis of structural, dynamic, and magnetic symmetry:
=====================================================================
 Subroutine PRICEL returns:
 Original cell was already a primitive cell.
 

 Routine SETGRP: Setting up the symmetry group for a 
 simple tetragonal supercell.


 Subroutine GETGRP returns: Found  8 space group operations
 (whereof  4 operations were pure point group operations)
 out of a pool of 16 trial point group operations.


The magnetic configuration has the point symmetry D_2 .
 The point group associated with its full space group is D_4 .


 Subroutine INISYM returns: Found  8 space group operations
 (whereof  4 operations are pure point group operations),
 and found     1 'primitive' translations


----------------------------------------------------------------------------------------

                                     Primitive cell                                     

  volume of cell :     217.2846

  direct lattice vectors                    reciprocal lattice vectors
     6.010861221  0.000000000  0.000000000     0.166365511  0.000000000  0.000000000
     0.000000000  6.010861221  0.000000000     0.000000000  0.166365511  0.000000000
     0.000000000  0.000000000  6.013891075     0.000000000  0.000000000  0.166281695

  length of vectors
     6.010861221  6.010861221  6.013891075     0.166365511  0.166365511  0.166281695

  position of ions in fractional coordinates (direct lattice)
     0.500000000  0.000000000  0.500000000
     0.500000000  0.000000000  0.000000000
     0.000000000  0.000000000  0.500000000
     0.500000000  0.500000000  0.000000000
     0.250519409  0.249480591  0.750000000
     0.250519409  0.750519409  0.250000000
     0.749480591  0.249480591  0.250000000
     0.749480591  0.750519409  0.750000000
     0.000000000  0.500000000  0.500000000
     0.000000000  0.000000000  0.000000000
     0.000000000  0.500000000  0.000000000
     0.500000000  0.500000000  0.500000000
     0.246458843  0.253541157  0.250000000
     0.753541157  0.253541157  0.750000000
     0.246458843  0.746458843  0.750000000
     0.753541157  0.746458843  0.250000000

  ion indices of the primitive-cell ions
   primitive index   ion index
                 1           1
                 2           2
                 3           3
                 4           4
                 5           5
                 6           6
                 7           7
                 8           8
                 9           9
                10          10
                11          11
                12          12
                13          13
                14          14
                15          15
                16          16

----------------------------------------------------------------------------------------

 
 
 KPOINTS: Ni7CoMn5CrSn2                           

Automatic generation of k-mesh.
Space group operators:
 irot       det(A)        alpha          n_x          n_y          n_z        tau_x        tau_y        tau_z
    1     1.000000     0.000000     1.000000     0.000000     0.000000     0.000000     0.000000     0.000000
    2     1.000000   180.000000     0.000000     0.000000     1.000000     0.000000     0.000000     0.000000
    3     1.000000   180.000000     0.000000     1.000000     0.000000     0.000000     0.000000     0.000000
    4     1.000000   180.000000     1.000000     0.000000     0.000000     0.000000     0.000000     0.000000
    5     1.000000    90.000000     0.000000     0.000000    -1.000000    -0.500000    -0.500000    -0.500000
    6     1.000000    90.000000     0.000000     0.000000     1.000000    -0.500000    -0.500000    -0.500000
    7     1.000000   180.000000     0.707107     0.707107     0.000000    -0.500000    -0.500000    -0.500000
    8     1.000000   180.000000     0.707107    -0.707107     0.000000    -0.500000    -0.500000    -0.500000
 
 Subroutine IBZKPT returns following result:
 ===========================================
 
 Found    288 irreducible k-points:
 
 Following reciprocal coordinates:
            Coordinates               Weight
  0.000000  0.000000  0.000000      1.000000
  0.066667  0.000000  0.000000      4.000000
  0.133333  0.000000  0.000000      4.000000
  0.200000  0.000000  0.000000      4.000000
  0.266667  0.000000  0.000000      4.000000
  0.333333  0.000000  0.000000      4.000000
  0.400000  0.000000  0.000000      4.000000
  0.466667  0.000000  0.000000      4.000000
  0.066667  0.066667  0.000000      4.000000
  0.133333  0.066667  0.000000      8.000000
  0.200000  0.066667  0.000000      8.000000
  0.266667  0.066667  0.000000      8.000000
  0.333333  0.066667  0.000000      8.000000
  0.400000  0.066667  0.000000      8.000000
  0.466667  0.066667  0.000000      8.000000
  0.133333  0.133333  0.000000      4.000000
  0.200000  0.133333  0.000000      8.000000
  0.266667  0.133333  0.000000      8.000000
  0.333333  0.133333  0.000000      8.000000
  0.400000  0.133333  0.000000      8.000000
  0.466667  0.133333  0.000000      8.000000
  0.200000  0.200000  0.000000      4.000000
  0.266667  0.200000  0.000000      8.000000
  0.333333  0.200000  0.000000      8.000000
  0.400000  0.200000  0.000000      8.000000
  0.466667  0.200000  0.000000      8.000000
  0.266667  0.266667  0.000000      4.000000
  0.333333  0.266667  0.000000      8.000000
  0.400000  0.266667  0.000000      8.000000
  0.466667  0.266667  0.000000      8.000000
  0.333333  0.333333  0.000000      4.000000
  0.400000  0.333333  0.000000      8.000000
  0.466667  0.333333  0.000000      8.000000
  0.400000  0.400000  0.000000      4.000000
  0.466667  0.400000  0.000000      8.000000
  0.466667  0.466667  0.000000      4.000000
  0.000000  0.000000  0.066667      2.000000
  0.066667  0.000000  0.066667      8.000000
  0.133333  0.000000  0.066667      8.000000
  0.200000  0.000000  0.066667      8.000000
  0.266667  0.000000  0.066667      8.000000
  0.333333  0.000000  0.066667      8.000000
  0.400000  0.000000  0.066667      8.000000
  0.466667  0.000000  0.066667      8.000000
  0.066667  0.066667  0.066667      8.000000
  0.133333  0.066667  0.066667     16.000000
  0.200000  0.066667  0.066667     16.000000
  0.266667  0.066667  0.066667     16.000000
  0.333333  0.066667  0.066667     16.000000
  0.400000  0.066667  0.066667     16.000000
  0.466667  0.066667  0.066667     16.000000
  0.133333  0.133333  0.066667      8.000000
  0.200000  0.133333  0.066667     16.000000
  0.266667  0.133333  0.066667     16.000000
  0.333333  0.133333  0.066667     16.000000
  0.400000  0.133333  0.066667     16.000000
  0.466667  0.133333  0.066667     16.000000
  0.200000  0.200000  0.066667      8.000000
  0.266667  0.200000  0.066667     16.000000
  0.333333  0.200000  0.066667     16.000000
  0.400000  0.200000  0.066667     16.000000
  0.466667  0.200000  0.066667     16.000000
  0.266667  0.266667  0.066667      8.000000
  0.333333  0.266667  0.066667     16.000000
  0.400000  0.266667  0.066667     16.000000
  0.466667  0.266667  0.066667     16.000000
  0.333333  0.333333  0.066667      8.000000
  0.400000  0.333333  0.066667     16.000000
  0.466667  0.333333  0.066667     16.000000
  0.400000  0.400000  0.066667      8.000000
  0.466667  0.400000  0.066667     16.000000
  0.466667  0.466667  0.066667      8.000000
  0.000000  0.000000  0.133333      2.000000
  0.066667  0.000000  0.133333      8.000000
  0.133333  0.000000  0.133333      8.000000
  0.200000  0.000000  0.133333      8.000000
  0.266667  0.000000  0.133333      8.000000
  0.333333  0.000000  0.133333      8.000000
  0.400000  0.000000  0.133333      8.000000
  0.466667  0.000000  0.133333      8.000000
  0.066667  0.066667  0.133333      8.000000
  0.133333  0.066667  0.133333     16.000000
  0.200000  0.066667  0.133333     16.000000
  0.266667  0.066667  0.133333     16.000000
  0.333333  0.066667  0.133333     16.000000
  0.400000  0.066667  0.133333     16.000000
  0.466667  0.066667  0.133333     16.000000
  0.133333  0.133333  0.133333      8.000000
  0.200000  0.133333  0.133333     16.000000
  0.266667  0.133333  0.133333     16.000000
  0.333333  0.133333  0.133333     16.000000
  0.400000  0.133333  0.133333     16.000000
  0.466667  0.133333  0.133333     16.000000
  0.200000  0.200000  0.133333      8.000000
  0.266667  0.200000  0.133333     16.000000
  0.333333  0.200000  0.133333     16.000000
  0.400000  0.200000  0.133333     16.000000
  0.466667  0.200000  0.133333     16.000000
  0.266667  0.266667  0.133333      8.000000
  0.333333  0.266667  0.133333     16.000000
  0.400000  0.266667  0.133333     16.000000
  0.466667  0.266667  0.133333     16.000000
  0.333333  0.333333  0.133333      8.000000
  0.400000  0.333333  0.133333     16.000000
  0.466667  0.333333  0.133333     16.000000
  0.400000  0.400000  0.133333      8.000000
  0.466667  0.400000  0.133333     16.000000
  0.466667  0.466667  0.133333      8.000000
  0.000000  0.000000  0.200000      2.000000
  0.066667  0.000000  0.200000      8.000000
  0.133333  0.000000  0.200000      8.000000
  0.200000  0.000000  0.200000      8.000000
  0.266667  0.000000  0.200000      8.000000
  0.333333  0.000000  0.200000      8.000000
  0.400000  0.000000  0.200000      8.000000
  0.466667  0.000000  0.200000      8.000000
  0.066667  0.066667  0.200000      8.000000
  0.133333  0.066667  0.200000     16.000000
  0.200000  0.066667  0.200000     16.000000
  0.266667  0.066667  0.200000     16.000000
  0.333333  0.066667  0.200000     16.000000
  0.400000  0.066667  0.200000     16.000000
  0.466667  0.066667  0.200000     16.000000
  0.133333  0.133333  0.200000      8.000000
  0.200000  0.133333  0.200000     16.000000
  0.266667  0.133333  0.200000     16.000000
  0.333333  0.133333  0.200000     16.000000
  0.400000  0.133333  0.200000     16.000000
  0.466667  0.133333  0.200000     16.000000
  0.200000  0.200000  0.200000      8.000000
  0.266667  0.200000  0.200000     16.000000
  0.333333  0.200000  0.200000     16.000000
  0.400000  0.200000  0.200000     16.000000
  0.466667  0.200000  0.200000     16.000000
  0.266667  0.266667  0.200000      8.000000
  0.333333  0.266667  0.200000     16.000000
  0.400000  0.266667  0.200000     16.000000
  0.466667  0.266667  0.200000     16.000000
  0.333333  0.333333  0.200000      8.000000
  0.400000  0.333333  0.200000     16.000000
  0.466667  0.333333  0.200000     16.000000
  0.400000  0.400000  0.200000      8.000000
  0.466667  0.400000  0.200000     16.000000
  0.466667  0.466667  0.200000      8.000000
  0.000000  0.000000  0.266667      2.000000
  0.066667  0.000000  0.266667      8.000000
  0.133333  0.000000  0.266667      8.000000
  0.200000  0.000000  0.266667      8.000000
  0.266667  0.000000  0.266667      8.000000
  0.333333  0.000000  0.266667      8.000000
  0.400000  0.000000  0.266667      8.000000
  0.466667  0.000000  0.266667      8.000000
  0.066667  0.066667  0.266667      8.000000
  0.133333  0.066667  0.266667     16.000000
  0.200000  0.066667  0.266667     16.000000
  0.266667  0.066667  0.266667     16.000000
  0.333333  0.066667  0.266667     16.000000
  0.400000  0.066667  0.266667     16.000000
  0.466667  0.066667  0.266667     16.000000
  0.133333  0.133333  0.266667      8.000000
  0.200000  0.133333  0.266667     16.000000
  0.266667  0.133333  0.266667     16.000000
  0.333333  0.133333  0.266667     16.000000
  0.400000  0.133333  0.266667     16.000000
  0.466667  0.133333  0.266667     16.000000
  0.200000  0.200000  0.266667      8.000000
  0.266667  0.200000  0.266667     16.000000
  0.333333  0.200000  0.266667     16.000000
  0.400000  0.200000  0.266667     16.000000
  0.466667  0.200000  0.266667     16.000000
  0.266667  0.266667  0.266667      8.000000
  0.333333  0.266667  0.266667     16.000000
  0.400000  0.266667  0.266667     16.000000
  0.466667  0.266667  0.266667     16.000000
  0.333333  0.333333  0.266667      8.000000
  0.400000  0.333333  0.266667     16.000000
  0.466667  0.333333  0.266667     16.000000
  0.400000  0.400000  0.266667      8.000000
  0.466667  0.400000  0.266667     16.000000
  0.466667  0.466667  0.266667      8.000000
  0.000000  0.000000  0.333333      2.000000
  0.066667  0.000000  0.333333      8.000000
  0.133333  0.000000  0.333333      8.000000
  0.200000  0.000000  0.333333      8.000000
  0.266667  0.000000  0.333333      8.000000
  0.333333  0.000000  0.333333      8.000000
  0.400000  0.000000  0.333333      8.000000
  0.466667  0.000000  0.333333      8.000000
  0.066667  0.066667  0.333333      8.000000
  0.133333  0.066667  0.333333     16.000000
  0.200000  0.066667  0.333333     16.000000
  0.266667  0.066667  0.333333     16.000000
  0.333333  0.066667  0.333333     16.000000
  0.400000  0.066667  0.333333     16.000000
  0.466667  0.066667  0.333333     16.000000
  0.133333  0.133333  0.333333      8.000000
  0.200000  0.133333  0.333333     16.000000
  0.266667  0.133333  0.333333     16.000000
  0.333333  0.133333  0.333333     16.000000
  0.400000  0.133333  0.333333     16.000000
  0.466667  0.133333  0.333333     16.000000
  0.200000  0.200000  0.333333      8.000000
  0.266667  0.200000  0.333333     16.000000
  0.333333  0.200000  0.333333     16.000000
  0.400000  0.200000  0.333333     16.000000
  0.466667  0.200000  0.333333     16.000000
  0.266667  0.266667  0.333333      8.000000
  0.333333  0.266667  0.333333     16.000000
  0.400000  0.266667  0.333333     16.000000
  0.466667  0.266667  0.333333     16.000000
  0.333333  0.333333  0.333333      8.000000
  0.400000  0.333333  0.333333     16.000000
  0.466667  0.333333  0.333333     16.000000
  0.400000  0.400000  0.333333      8.000000
  0.466667  0.400000  0.333333     16.000000
  0.466667  0.466667  0.333333      8.000000
  0.000000  0.000000  0.400000      2.000000
  0.066667  0.000000  0.400000      8.000000
  0.133333  0.000000  0.400000      8.000000
  0.200000  0.000000  0.400000      8.000000
  0.266667  0.000000  0.400000      8.000000
  0.333333  0.000000  0.400000      8.000000
  0.400000  0.000000  0.400000      8.000000
  0.466667  0.000000  0.400000      8.000000
  0.066667  0.066667  0.400000      8.000000
  0.133333  0.066667  0.400000     16.000000
  0.200000  0.066667  0.400000     16.000000
  0.266667  0.066667  0.400000     16.000000
  0.333333  0.066667  0.400000     16.000000
  0.400000  0.066667  0.400000     16.000000
  0.466667  0.066667  0.400000     16.000000
  0.133333  0.133333  0.400000      8.000000
  0.200000  0.133333  0.400000     16.000000
  0.266667  0.133333  0.400000     16.000000
  0.333333  0.133333  0.400000     16.000000
  0.400000  0.133333  0.400000     16.000000
  0.466667  0.133333  0.400000     16.000000
  0.200000  0.200000  0.400000      8.000000
  0.266667  0.200000  0.400000     16.000000
  0.333333  0.200000  0.400000     16.000000
  0.400000  0.200000  0.400000     16.000000
  0.466667  0.200000  0.400000     16.000000
  0.266667  0.266667  0.400000      8.000000
  0.333333  0.266667  0.400000     16.000000
  0.400000  0.266667  0.400000     16.000000
  0.466667  0.266667  0.400000     16.000000
  0.333333  0.333333  0.400000      8.000000
  0.400000  0.333333  0.400000     16.000000
  0.466667  0.333333  0.400000     16.000000
  0.400000  0.400000  0.400000      8.000000
  0.466667  0.400000  0.400000     16.000000
  0.466667  0.466667  0.400000      8.000000
  0.000000  0.000000  0.466667      2.000000
  0.066667  0.000000  0.466667      8.000000
  0.133333  0.000000  0.466667      8.000000
  0.200000  0.000000  0.466667      8.000000
  0.266667  0.000000  0.466667      8.000000
  0.333333  0.000000  0.466667      8.000000
  0.400000  0.000000  0.466667      8.000000
  0.466667  0.000000  0.466667      8.000000
  0.066667  0.066667  0.466667      8.000000
  0.133333  0.066667  0.466667     16.000000
  0.200000  0.066667  0.466667     16.000000
  0.266667  0.066667  0.466667     16.000000
  0.333333  0.066667  0.466667     16.000000
  0.400000  0.066667  0.466667     16.000000
  0.466667  0.066667  0.466667     16.000000
  0.133333  0.133333  0.466667      8.000000
  0.200000  0.133333  0.466667     16.000000
  0.266667  0.133333  0.466667     16.000000
  0.333333  0.133333  0.466667     16.000000
  0.400000  0.133333  0.466667     16.000000
  0.466667  0.133333  0.466667     16.000000
  0.200000  0.200000  0.466667      8.000000
  0.266667  0.200000  0.466667     16.000000
  0.333333  0.200000  0.466667     16.000000
  0.400000  0.200000  0.466667     16.000000
  0.466667  0.200000  0.466667     16.000000
  0.266667  0.266667  0.466667      8.000000
  0.333333  0.266667  0.466667     16.000000
  0.400000  0.266667  0.466667     16.000000
  0.466667  0.266667  0.466667     16.000000
  0.333333  0.333333  0.466667      8.000000
  0.400000  0.333333  0.466667     16.000000
  0.466667  0.333333  0.466667     16.000000
  0.400000  0.400000  0.466667      8.000000
  0.466667  0.400000  0.466667     16.000000
  0.466667  0.466667  0.466667      8.000000
 
 Following cartesian coordinates:
            Coordinates               Weight
  0.000000  0.000000  0.000000      1.000000
  0.067101  0.000000  0.000000      4.000000
  0.134202  0.000000  0.000000      4.000000
  0.201302  0.000000  0.000000      4.000000
  0.268403  0.000000  0.000000      4.000000
  0.335504  0.000000  0.000000      4.000000
  0.402605  0.000000  0.000000      4.000000
  0.469705  0.000000  0.000000      4.000000
  0.067101  0.067101  0.000000      4.000000
  0.134202  0.067101  0.000000      8.000000
  0.201302  0.067101  0.000000      8.000000
  0.268403  0.067101  0.000000      8.000000
  0.335504  0.067101  0.000000      8.000000
  0.402605  0.067101  0.000000      8.000000
  0.469705  0.067101  0.000000      8.000000
  0.134202  0.134202  0.000000      4.000000
  0.201302  0.134202  0.000000      8.000000
  0.268403  0.134202  0.000000      8.000000
  0.335504  0.134202  0.000000      8.000000
  0.402605  0.134202  0.000000      8.000000
  0.469705  0.134202  0.000000      8.000000
  0.201302  0.201302  0.000000      4.000000
  0.268403  0.201302  0.000000      8.000000
  0.335504  0.201302  0.000000      8.000000
  0.402605  0.201302  0.000000      8.000000
  0.469705  0.201302  0.000000      8.000000
  0.268403  0.268403  0.000000      4.000000
  0.335504  0.268403  0.000000      8.000000
  0.402605  0.268403  0.000000      8.000000
  0.469705  0.268403  0.000000      8.000000
  0.335504  0.335504  0.000000      4.000000
  0.402605  0.335504  0.000000      8.000000
  0.469705  0.335504  0.000000      8.000000
  0.402605  0.402605  0.000000      4.000000
  0.469705  0.402605  0.000000      8.000000
  0.469705  0.469705  0.000000      4.000000
  0.000000  0.000000  0.067067      2.000000
  0.067101  0.000000  0.067067      8.000000
  0.134202  0.000000  0.067067      8.000000
  0.201302  0.000000  0.067067      8.000000
  0.268403  0.000000  0.067067      8.000000
  0.335504  0.000000  0.067067      8.000000
  0.402605  0.000000  0.067067      8.000000
  0.469705  0.000000  0.067067      8.000000
  0.067101  0.067101  0.067067      8.000000
  0.134202  0.067101  0.067067     16.000000
  0.201302  0.067101  0.067067     16.000000
  0.268403  0.067101  0.067067     16.000000
  0.335504  0.067101  0.067067     16.000000
  0.402605  0.067101  0.067067     16.000000
  0.469705  0.067101  0.067067     16.000000
  0.134202  0.134202  0.067067      8.000000
  0.201302  0.134202  0.067067     16.000000
  0.268403  0.134202  0.067067     16.000000
  0.335504  0.134202  0.067067     16.000000
  0.402605  0.134202  0.067067     16.000000
  0.469705  0.134202  0.067067     16.000000
  0.201302  0.201302  0.067067      8.000000
  0.268403  0.201302  0.067067     16.000000
  0.335504  0.201302  0.067067     16.000000
  0.402605  0.201302  0.067067     16.000000
  0.469705  0.201302  0.067067     16.000000
  0.268403  0.268403  0.067067      8.000000
  0.335504  0.268403  0.067067     16.000000
  0.402605  0.268403  0.067067     16.000000
  0.469705  0.268403  0.067067     16.000000
  0.335504  0.335504  0.067067      8.000000
  0.402605  0.335504  0.067067     16.000000
  0.469705  0.335504  0.067067     16.000000
  0.402605  0.402605  0.067067      8.000000
  0.469705  0.402605  0.067067     16.000000
  0.469705  0.469705  0.067067      8.000000
  0.000000  0.000000  0.134134      2.000000
  0.067101  0.000000  0.134134      8.000000
  0.134202  0.000000  0.134134      8.000000
  0.201302  0.000000  0.134134      8.000000
  0.268403  0.000000  0.134134      8.000000
  0.335504  0.000000  0.134134      8.000000
  0.402605  0.000000  0.134134      8.000000
  0.469705  0.000000  0.134134      8.000000
  0.067101  0.067101  0.134134      8.000000
  0.134202  0.067101  0.134134     16.000000
  0.201302  0.067101  0.134134     16.000000
  0.268403  0.067101  0.134134     16.000000
  0.335504  0.067101  0.134134     16.000000
  0.402605  0.067101  0.134134     16.000000
  0.469705  0.067101  0.134134     16.000000
  0.134202  0.134202  0.134134      8.000000
  0.201302  0.134202  0.134134     16.000000
  0.268403  0.134202  0.134134     16.000000
  0.335504  0.134202  0.134134     16.000000
  0.402605  0.134202  0.134134     16.000000
  0.469705  0.134202  0.134134     16.000000
  0.201302  0.201302  0.134134      8.000000
  0.268403  0.201302  0.134134     16.000000
  0.335504  0.201302  0.134134     16.000000
  0.402605  0.201302  0.134134     16.000000
  0.469705  0.201302  0.134134     16.000000
  0.268403  0.268403  0.134134      8.000000
  0.335504  0.268403  0.134134     16.000000
  0.402605  0.268403  0.134134     16.000000
  0.469705  0.268403  0.134134     16.000000
  0.335504  0.335504  0.134134      8.000000
  0.402605  0.335504  0.134134     16.000000
  0.469705  0.335504  0.134134     16.000000
  0.402605  0.402605  0.134134      8.000000
  0.469705  0.402605  0.134134     16.000000
  0.469705  0.469705  0.134134      8.000000
  0.000000  0.000000  0.201201      2.000000
  0.067101  0.000000  0.201201      8.000000
  0.134202  0.000000  0.201201      8.000000
  0.201302  0.000000  0.201201      8.000000
  0.268403  0.000000  0.201201      8.000000
  0.335504  0.000000  0.201201      8.000000
  0.402605  0.000000  0.201201      8.000000
  0.469705  0.000000  0.201201      8.000000
  0.067101  0.067101  0.201201      8.000000
  0.134202  0.067101  0.201201     16.000000
  0.201302  0.067101  0.201201     16.000000
  0.268403  0.067101  0.201201     16.000000
  0.335504  0.067101  0.201201     16.000000
  0.402605  0.067101  0.201201     16.000000
  0.469705  0.067101  0.201201     16.000000
  0.134202  0.134202  0.201201      8.000000
  0.201302  0.134202  0.201201     16.000000
  0.268403  0.134202  0.201201     16.000000
  0.335504  0.134202  0.201201     16.000000
  0.402605  0.134202  0.201201     16.000000
  0.469705  0.134202  0.201201     16.000000
  0.201302  0.201302  0.201201      8.000000
  0.268403  0.201302  0.201201     16.000000
  0.335504  0.201302  0.201201     16.000000
  0.402605  0.201302  0.201201     16.000000
  0.469705  0.201302  0.201201     16.000000
  0.268403  0.268403  0.201201      8.000000
  0.335504  0.268403  0.201201     16.000000
  0.402605  0.268403  0.201201     16.000000
  0.469705  0.268403  0.201201     16.000000
  0.335504  0.335504  0.201201      8.000000
  0.402605  0.335504  0.201201     16.000000
  0.469705  0.335504  0.201201     16.000000
  0.402605  0.402605  0.201201      8.000000
  0.469705  0.402605  0.201201     16.000000
  0.469705  0.469705  0.201201      8.000000
  0.000000  0.000000  0.268268      2.000000
  0.067101  0.000000  0.268268      8.000000
  0.134202  0.000000  0.268268      8.000000
  0.201302  0.000000  0.268268      8.000000
  0.268403  0.000000  0.268268      8.000000
  0.335504  0.000000  0.268268      8.000000
  0.402605  0.000000  0.268268      8.000000
  0.469705  0.000000  0.268268      8.000000
  0.067101  0.067101  0.268268      8.000000
  0.134202  0.067101  0.268268     16.000000
  0.201302  0.067101  0.268268     16.000000
  0.268403  0.067101  0.268268     16.000000
  0.335504  0.067101  0.268268     16.000000
  0.402605  0.067101  0.268268     16.000000
  0.469705  0.067101  0.268268     16.000000
  0.134202  0.134202  0.268268      8.000000
  0.201302  0.134202  0.268268     16.000000
  0.268403  0.134202  0.268268     16.000000
  0.335504  0.134202  0.268268     16.000000
  0.402605  0.134202  0.268268     16.000000
  0.469705  0.134202  0.268268     16.000000
  0.201302  0.201302  0.268268      8.000000
  0.268403  0.201302  0.268268     16.000000
  0.335504  0.201302  0.268268     16.000000
  0.402605  0.201302  0.268268     16.000000
  0.469705  0.201302  0.268268     16.000000
  0.268403  0.268403  0.268268      8.000000
  0.335504  0.268403  0.268268     16.000000
  0.402605  0.268403  0.268268     16.000000
  0.469705  0.268403  0.268268     16.000000
  0.335504  0.335504  0.268268      8.000000
  0.402605  0.335504  0.268268     16.000000
  0.469705  0.335504  0.268268     16.000000
  0.402605  0.402605  0.268268      8.000000
  0.469705  0.402605  0.268268     16.000000
  0.469705  0.469705  0.268268      8.000000
  0.000000  0.000000  0.335335      2.000000
  0.067101  0.000000  0.335335      8.000000
  0.134202  0.000000  0.335335      8.000000
  0.201302  0.000000  0.335335      8.000000
  0.268403  0.000000  0.335335      8.000000
  0.335504  0.000000  0.335335      8.000000
  0.402605  0.000000  0.335335      8.000000
  0.469705  0.000000  0.335335      8.000000
  0.067101  0.067101  0.335335      8.000000
  0.134202  0.067101  0.335335     16.000000
  0.201302  0.067101  0.335335     16.000000
  0.268403  0.067101  0.335335     16.000000
  0.335504  0.067101  0.335335     16.000000
  0.402605  0.067101  0.335335     16.000000
  0.469705  0.067101  0.335335     16.000000
  0.134202  0.134202  0.335335      8.000000
  0.201302  0.134202  0.335335     16.000000
  0.268403  0.134202  0.335335     16.000000
  0.335504  0.134202  0.335335     16.000000
  0.402605  0.134202  0.335335     16.000000
  0.469705  0.134202  0.335335     16.000000
  0.201302  0.201302  0.335335      8.000000
  0.268403  0.201302  0.335335     16.000000
  0.335504  0.201302  0.335335     16.000000
  0.402605  0.201302  0.335335     16.000000
  0.469705  0.201302  0.335335     16.000000
  0.268403  0.268403  0.335335      8.000000
  0.335504  0.268403  0.335335     16.000000
  0.402605  0.268403  0.335335     16.000000
  0.469705  0.268403  0.335335     16.000000
  0.335504  0.335504  0.335335      8.000000
  0.402605  0.335504  0.335335     16.000000
  0.469705  0.335504  0.335335     16.000000
  0.402605  0.402605  0.335335      8.000000
  0.469705  0.402605  0.335335     16.000000
  0.469705  0.469705  0.335335      8.000000
  0.000000  0.000000  0.402402      2.000000
  0.067101  0.000000  0.402402      8.000000
  0.134202  0.000000  0.402402      8.000000
  0.201302  0.000000  0.402402      8.000000
  0.268403  0.000000  0.402402      8.000000
  0.335504  0.000000  0.402402      8.000000
  0.402605  0.000000  0.402402      8.000000
  0.469705  0.000000  0.402402      8.000000
  0.067101  0.067101  0.402402      8.000000
  0.134202  0.067101  0.402402     16.000000
  0.201302  0.067101  0.402402     16.000000
  0.268403  0.067101  0.402402     16.000000
  0.335504  0.067101  0.402402     16.000000
  0.402605  0.067101  0.402402     16.000000
  0.469705  0.067101  0.402402     16.000000
  0.134202  0.134202  0.402402      8.000000
  0.201302  0.134202  0.402402     16.000000
  0.268403  0.134202  0.402402     16.000000
  0.335504  0.134202  0.402402     16.000000
  0.402605  0.134202  0.402402     16.000000
  0.469705  0.134202  0.402402     16.000000
  0.201302  0.201302  0.402402      8.000000
  0.268403  0.201302  0.402402     16.000000
  0.335504  0.201302  0.402402     16.000000
  0.402605  0.201302  0.402402     16.000000
  0.469705  0.201302  0.402402     16.000000
  0.268403  0.268403  0.402402      8.000000
  0.335504  0.268403  0.402402     16.000000
  0.402605  0.268403  0.402402     16.000000
  0.469705  0.268403  0.402402     16.000000
  0.335504  0.335504  0.402402      8.000000
  0.402605  0.335504  0.402402     16.000000
  0.469705  0.335504  0.402402     16.000000
  0.402605  0.402605  0.402402      8.000000
  0.469705  0.402605  0.402402     16.000000
  0.469705  0.469705  0.402402      8.000000
  0.000000  0.000000  0.469469      2.000000
  0.067101  0.000000  0.469469      8.000000
  0.134202  0.000000  0.469469      8.000000
  0.201302  0.000000  0.469469      8.000000
  0.268403  0.000000  0.469469      8.000000
  0.335504  0.000000  0.469469      8.000000
  0.402605  0.000000  0.469469      8.000000
  0.469705  0.000000  0.469469      8.000000
  0.067101  0.067101  0.469469      8.000000
  0.134202  0.067101  0.469469     16.000000
  0.201302  0.067101  0.469469     16.000000
  0.268403  0.067101  0.469469     16.000000
  0.335504  0.067101  0.469469     16.000000
  0.402605  0.067101  0.469469     16.000000
  0.469705  0.067101  0.469469     16.000000
  0.134202  0.134202  0.469469      8.000000
  0.201302  0.134202  0.469469     16.000000
  0.268403  0.134202  0.469469     16.000000
  0.335504  0.134202  0.469469     16.000000
  0.402605  0.134202  0.469469     16.000000
  0.469705  0.134202  0.469469     16.000000
  0.201302  0.201302  0.469469      8.000000
  0.268403  0.201302  0.469469     16.000000
  0.335504  0.201302  0.469469     16.000000
  0.402605  0.201302  0.469469     16.000000
  0.469705  0.201302  0.469469     16.000000
  0.268403  0.268403  0.469469      8.000000
  0.335504  0.268403  0.469469     16.000000
  0.402605  0.268403  0.469469     16.000000
  0.469705  0.268403  0.469469     16.000000
  0.335504  0.335504  0.469469      8.000000
  0.402605  0.335504  0.469469     16.000000
  0.469705  0.335504  0.469469     16.000000
  0.402605  0.402605  0.469469      8.000000
  0.469705  0.402605  0.469469     16.000000
  0.469705  0.469705  0.469469      8.000000
 


--------------------------------------------------------------------------------------------------------




 Dimension of arrays:
   k-points           NKPTS =    288   k-points in BZ     NKDIM =    288   number of bands    NBANDS=    125
   number of dos      NEDOS =   1500   number of ions     NIONS =     16
   non local maximal  LDIM  =      6   non local SUM 2l+1 LMDIM =     18
   total plane-waves  NPLWV = 110592
   max r-space proj   IRMAX =   9792   max aug-charges    IRDMAX= 459488
   dimension x,y,z NGX =    48 NGY =   48 NGZ =   48
   dimension x,y,z NGXF=    96 NGYF=   96 NGZF=   96
   support grid    NGXF=   192 NGYF=  192 NGZF=  192
   ions per type =               8   4   4
   NGX,Y,Z   is equivalent  to a cutoff of  13.28, 13.28, 13.27 a.u.
   NGXF,Y,Z  is equivalent  to a cutoff of  26.55, 26.55, 26.54 a.u.

 SYSTEM =  NiCoMnGa                                
 POSCAR =  Heusler tetragonal                      

 Startparameter for this run:
   NWRITE =      2    write-flag & timer
   PREC   = accura    normal or accurate (medium, high low for compatibility)
   ISTART =      0    job   : 0-new  1-cont  2-samecut
   ICHARG =      2    charge: 1-file 2-atom 10-const
   ISPIN  =      2    spin polarized calculation?
   LNONCOLLINEAR =      F non collinear calculations
   LSORBIT =      F    spin-orbit coupling
   INIWAV =      1    electr: 0-lowe 1-rand  2-diag
   LASPH  =      F    aspherical Exc in radial PAW
   METAGGA=      F    non-selfconsistent MetaGGA calc.

 Electronic Relaxation 1
   ENCUT  =  500.0 eV  36.75 Ry    6.06 a.u.  10.96 10.96 10.96*2*pi/ulx,y,z
   ENINI  =  500.0     initial cutoff
   ENAUG  =  578.3 eV  augmentation charge cutoff
   NELM   =    160;   NELMIN=  2; NELMDL= -6     # of ELM steps 
   EDIFF  = 0.1E-05   stopping-criterion for ELM
   LREAL  =      T    real-space projection
   NLSPLINE    = F    spline interpolate recip. space projectors
   LCOMPAT=      F    compatible to vasp.4.4
   GGA_COMPAT  = T    GGA compatible to vasp.4.4-vasp.4.6
   LMAXPAW     = -100 max onsite density
   LMAXMIX     =    6 max onsite mixed and CHGCAR
   VOSKOWN=      0    Vosko Wilk Nusair interpolation
   ROPT   =   -0.00025  -0.00025  -0.00025
 Ionic relaxation
   EDIFFG = 0.1E-02   stopping-criterion for IOM
   NSW    =      0    number of steps for IOM
   NBLOCK =      1;   KBLOCK =      1    inner block; outer block 
   IBRION =     -1    ionic relax: 0-MD 1-quasi-New 2-CG
   NFREE  =      1    steps in history (QN), initial steepest desc. (CG)
   ISIF   =      3    stress and relaxation
   IWAVPR =     10    prediction:  0-non 1-charg 2-wave 3-comb
   ISYM   =      2    0-nonsym 1-usesym 2-fastsym
   LCORR  =      T    Harris-Foulkes like correction to forces

   POTIM  = 0.0100    time-step for ionic-motion
   TEIN   =    0.0    initial temperature
   TEBEG  =    0.0;   TEEND  =   0.0 temperature during run
   SMASS  =  -3.00    Nose mass-parameter (am)
   estimated Nose-frequenzy (Omega)   =  0.10E-29 period in steps = 0.63E+48 mass=  -0.826E-27a.u.
   SCALEE = 1.0000    scale energy and forces
   NPACO  =    256;   APACO  = 16.0  distance and # of slots for P.C.
   PSTRESS=    0.0 pullay stress

  Mass of Ions in am
   POMASS =  55.85 58.93114.82
  Ionic Valenz
   ZVAL   =  14.00 15.00  3.00
  Atomic Wigner-Seitz radii
   RWIGS  =   1.16  1.16  1.16
  virtual crystal weights 
   VCA    =   1.00  1.00  1.00
   NELECT =     184.0000    total number of electrons
   NUPDOWN=      -1.0000    fix difference up-down

 DOS related values:
   EMIN   =  10.00;   EMAX   =-10.00  energy-range for DOS
   EFERMI =   0.00
   ISMEAR =     1;   SIGMA  =   0.10  broadening in eV -4-tet -1-fermi 0-gaus

 Electronic relaxation 2 (details)
   IALGO  =     38    algorithm
   LDIAG  =      T    sub-space diagonalisation (order eigenvalues)
   LSUBROT=      F    optimize rotation matrix (better conditioning)
   TURBO    =      0    0=normal 1=particle mesh
   IRESTART =      0    0=no restart 2=restart with 2 vectors
   NREBOOT  =      0    no. of reboots
   NMIN     =      0    reboot dimension
   EREF     =   0.00    reference energy to select bands
   IMIX   =      4    mixing-type and parameters
     AMIX     =   0.18;   BMIX     =  0.00
     AMIX_MAG =   0.26;   BMIX_MAG =  0.01
     AMIN     =   0.10
     WC   =   100.;   INIMIX=   1;  MIXPRE=   1;  MAXMIX= -45

 Intra band minimization:
   WEIMIN = 0.0000     energy-eigenvalue tresh-hold
   EBREAK =  0.20E-08  absolut break condition
   DEPER  =   0.30     relativ break condition  

   TIME   =   0.40     timestep for ELM

  volume/ion in A,a.u.               =      13.58        91.64
  Fermi-wavevector in a.u.,A,eV,Ry     =   1.548832  2.926869 32.638772  2.398882
  Thomas-Fermi vector in A             =   2.653726
 
 Write flags
   LWAVE        =      F    write WAVECAR
   LDOWNSAMPLE  =      F    k-point downsampling of WAVECAR
   LCHARG       =      T    write CHGCAR
   LVTOT        =      F    write LOCPOT, total local potential
   LVHAR        =      F    write LOCPOT, Hartree potential only
   LELF         =      F    write electronic localiz. function (ELF)
   LORBIT       =     10    0 simple, 1 ext, 2 COOP (PROOUT), +10 PAW based schemes


 Dipole corrections
   LMONO  =      F    monopole corrections only (constant potential shift)
   LDIPOL =      F    correct potential (dipole corrections)
   IDIPOL =      0    1-x, 2-y, 3-z, 4-all directions 
   EPSILON=  1.0000000 bulk dielectric constant

 Exchange correlation treatment:
   GGA     =    --    GGA type
   LEXCH   =     8    internal setting for exchange type
   VOSKOWN=      0    Vosko Wilk Nusair interpolation
   LHFCALC =     F    Hartree Fock is set to
   LHFONE  =     F    Hartree Fock one center treatment
   AEXX    =    0.0000 exact exchange contribution

 Linear response parameters
   LEPSILON=     F    determine dielectric tensor
   LRPA    =     F    only Hartree local field effects (RPA)
   LNABLA  =     F    use nabla operator in PAW spheres
   LVEL    =     F    velocity operator in full k-point grid
   LINTERFAST=   F  fast interpolation
   KINTER  =     0    interpolate to denser k-point grid
   CSHIFT  =0.1000    complex shift for real part using Kramers Kronig
   OMEGAMAX=  -1.0    maximum frequency
   DEG_THRESHOLD= 0.2000000E-02 threshold for treating states as degnerate
   RTIME   =   -0.100 relaxation time in fs
  (WPLASMAI=    0.000 imaginary part of plasma frequency in eV, 0.658/RTIME)
   DFIELD  = 0.0000000 0.0000000 0.0000000 field for delta impulse in time
 
 Orbital magnetization related:
   ORBITALMAG=     F  switch on orbital magnetization
   LCHIMAG   =     F  perturbation theory with respect to B field
   DQ        =  0.001000  dq finite difference perturbation B field
   LLRAUG    =     F  two centre corrections for induced B field



--------------------------------------------------------------------------------------------------------


 Static calculation
 charge density and potential will be updated during run
 spin polarized calculation
 Variant of blocked Davidson
 Davidson routine will perform the subspace rotation
 perform sub-space diagonalisation
    after iterative eigenvector-optimisation
 modified Broyden-mixing scheme, WC =      100.0
 initial mixing is a Kerker type mixing with AMIX =  0.1800 and BMIX =      0.0025
 Hartree-type preconditioning will be used
 using additional bands           33
 real space projection scheme for non local part
 use partial core corrections
 calculate Harris-corrections to forces 
   (improved forces if not selfconsistent)
 use gradient corrections 
 use of overlap-Matrix (Vanderbilt PP)
 Methfessel and Paxton  Order N= 1 SIGMA  =   0.10


--------------------------------------------------------------------------------------------------------


  energy-cutoff  :      500.00
  volume of cell :      217.28
      direct lattice vectors                 reciprocal lattice vectors
     6.010861221  0.000000000  0.000000000     0.166365511  0.000000000  0.000000000
     0.000000000  6.010861221  0.000000000     0.000000000  0.166365511  0.000000000
     0.000000000  0.000000000  6.013891075     0.000000000  0.000000000  0.166281695

  length of vectors
     6.010861221  6.010861221  6.013891075     0.166365511  0.166365511  0.166281695


 
 k-points in units of 2pi/SCALE and weight: Ni7CoMn5CrSn2                           
   0.00000000  0.00000000  0.00000000       0.000
   0.06710076  0.00000000  0.00000000       0.001
   0.13420151  0.00000000  0.00000000       0.001
   0.20130227  0.00000000  0.00000000       0.001
   0.26840302  0.00000000  0.00000000       0.001
   0.33550378  0.00000000  0.00000000       0.001
   0.40260454  0.00000000  0.00000000       0.001
   0.46970529  0.00000000  0.00000000       0.001
   0.06710076  0.06710076  0.00000000       0.001
   0.13420151  0.06710076  0.00000000       0.002
   0.20130227  0.06710076  0.00000000       0.002
   0.26840302  0.06710076  0.00000000       0.002
   0.33550378  0.06710076  0.00000000       0.002
   0.40260454  0.06710076  0.00000000       0.002
   0.46970529  0.06710076  0.00000000       0.002
   0.13420151  0.13420151  0.00000000       0.001
   0.20130227  0.13420151  0.00000000       0.002
   0.26840302  0.13420151  0.00000000       0.002
   0.33550378  0.13420151  0.00000000       0.002
   0.40260454  0.13420151  0.00000000       0.002
   0.46970529  0.13420151  0.00000000       0.002
   0.20130227  0.20130227  0.00000000       0.001
   0.26840302  0.20130227  0.00000000       0.002
   0.33550378  0.20130227  0.00000000       0.002
   0.40260454  0.20130227  0.00000000       0.002
   0.46970529  0.20130227  0.00000000       0.002
   0.26840302  0.26840302  0.00000000       0.001
   0.33550378  0.26840302  0.00000000       0.002
   0.40260454  0.26840302  0.00000000       0.002
   0.46970529  0.26840302  0.00000000       0.002
   0.33550378  0.33550378  0.00000000       0.001
   0.40260454  0.33550378  0.00000000       0.002
   0.46970529  0.33550378  0.00000000       0.002
   0.40260454  0.40260454  0.00000000       0.001
   0.46970529  0.40260454  0.00000000       0.002
   0.46970529  0.46970529  0.00000000       0.001
   0.00000000  0.00000000  0.06706695       0.001
   0.06710076  0.00000000  0.06706695       0.002
   0.13420151  0.00000000  0.06706695       0.002
   0.20130227  0.00000000  0.06706695       0.002
   0.26840302  0.00000000  0.06706695       0.002
   0.33550378  0.00000000  0.06706695       0.002
   0.40260454  0.00000000  0.06706695       0.002
   0.46970529  0.00000000  0.06706695       0.002
   0.06710076  0.06710076  0.06706695       0.002
   0.13420151  0.06710076  0.06706695       0.005
   0.20130227  0.06710076  0.06706695       0.005
   0.26840302  0.06710076  0.06706695       0.005
   0.33550378  0.06710076  0.06706695       0.005
   0.40260454  0.06710076  0.06706695       0.005
   0.46970529  0.06710076  0.06706695       0.005
   0.13420151  0.13420151  0.06706695       0.002
   0.20130227  0.13420151  0.06706695       0.005
   0.26840302  0.13420151  0.06706695       0.005
   0.33550378  0.13420151  0.06706695       0.005
   0.40260454  0.13420151  0.06706695       0.005
   0.46970529  0.13420151  0.06706695       0.005
   0.20130227  0.20130227  0.06706695       0.002
   0.26840302  0.20130227  0.06706695       0.005
   0.33550378  0.20130227  0.06706695       0.005
   0.40260454  0.20130227  0.06706695       0.005
   0.46970529  0.20130227  0.06706695       0.005
   0.26840302  0.26840302  0.06706695       0.002
   0.33550378  0.26840302  0.06706695       0.005
   0.40260454  0.26840302  0.06706695       0.005
   0.46970529  0.26840302  0.06706695       0.005
   0.33550378  0.33550378  0.06706695       0.002
   0.40260454  0.33550378  0.06706695       0.005
   0.46970529  0.33550378  0.06706695       0.005
   0.40260454  0.40260454  0.06706695       0.002
   0.46970529  0.40260454  0.06706695       0.005
   0.46970529  0.46970529  0.06706695       0.002
   0.00000000  0.00000000  0.13413390       0.001
   0.06710076  0.00000000  0.13413390       0.002
   0.13420151  0.00000000  0.13413390       0.002
   0.20130227  0.00000000  0.13413390       0.002
   0.26840302  0.00000000  0.13413390       0.002
   0.33550378  0.00000000  0.13413390       0.002
   0.40260454  0.00000000  0.13413390       0.002
   0.46970529  0.00000000  0.13413390       0.002
   0.06710076  0.06710076  0.13413390       0.002
   0.13420151  0.06710076  0.13413390       0.005
   0.20130227  0.06710076  0.13413390       0.005
   0.26840302  0.06710076  0.13413390       0.005
   0.33550378  0.06710076  0.13413390       0.005
   0.40260454  0.06710076  0.13413390       0.005
   0.46970529  0.06710076  0.13413390       0.005
   0.13420151  0.13420151  0.13413390       0.002
   0.20130227  0.13420151  0.13413390       0.005
   0.26840302  0.13420151  0.13413390       0.005
   0.33550378  0.13420151  0.13413390       0.005
   0.40260454  0.13420151  0.13413390       0.005
   0.46970529  0.13420151  0.13413390       0.005
   0.20130227  0.20130227  0.13413390       0.002
   0.26840302  0.20130227  0.13413390       0.005
   0.33550378  0.20130227  0.13413390       0.005
   0.40260454  0.20130227  0.13413390       0.005
   0.46970529  0.20130227  0.13413390       0.005
   0.26840302  0.26840302  0.13413390       0.002
   0.33550378  0.26840302  0.13413390       0.005
   0.40260454  0.26840302  0.13413390       0.005
   0.46970529  0.26840302  0.13413390       0.005
   0.33550378  0.33550378  0.13413390       0.002
   0.40260454  0.33550378  0.13413390       0.005
   0.46970529  0.33550378  0.13413390       0.005
   0.40260454  0.40260454  0.13413390       0.002
   0.46970529  0.40260454  0.13413390       0.005
   0.46970529  0.46970529  0.13413390       0.002
   0.00000000  0.00000000  0.20120085       0.001
   0.06710076  0.00000000  0.20120085       0.002
   0.13420151  0.00000000  0.20120085       0.002
   0.20130227  0.00000000  0.20120085       0.002
   0.26840302  0.00000000  0.20120085       0.002
   0.33550378  0.00000000  0.20120085       0.002
   0.40260454  0.00000000  0.20120085       0.002
   0.46970529  0.00000000  0.20120085       0.002
   0.06710076  0.06710076  0.20120085       0.002
   0.13420151  0.06710076  0.20120085       0.005
   0.20130227  0.06710076  0.20120085       0.005
   0.26840302  0.06710076  0.20120085       0.005
   0.33550378  0.06710076  0.20120085       0.005
   0.40260454  0.06710076  0.20120085       0.005
   0.46970529  0.06710076  0.20120085       0.005
   0.13420151  0.13420151  0.20120085       0.002
   0.20130227  0.13420151  0.20120085       0.005
   0.26840302  0.13420151  0.20120085       0.005
   0.33550378  0.13420151  0.20120085       0.005
   0.40260454  0.13420151  0.20120085       0.005
   0.46970529  0.13420151  0.20120085       0.005
   0.20130227  0.20130227  0.20120085       0.002
   0.26840302  0.20130227  0.20120085       0.005
   0.33550378  0.20130227  0.20120085       0.005
   0.40260454  0.20130227  0.20120085       0.005
   0.46970529  0.20130227  0.20120085       0.005
   0.26840302  0.26840302  0.20120085       0.002
   0.33550378  0.26840302  0.20120085       0.005
   0.40260454  0.26840302  0.20120085       0.005
   0.46970529  0.26840302  0.20120085       0.005
   0.33550378  0.33550378  0.20120085       0.002
   0.40260454  0.33550378  0.20120085       0.005
   0.46970529  0.33550378  0.20120085       0.005
   0.40260454  0.40260454  0.20120085       0.002
   0.46970529  0.40260454  0.20120085       0.005
   0.46970529  0.46970529  0.20120085       0.002
   0.00000000  0.00000000  0.26826780       0.001
   0.06710076  0.00000000  0.26826780       0.002
   0.13420151  0.00000000  0.26826780       0.002
   0.20130227  0.00000000  0.26826780       0.002
   0.26840302  0.00000000  0.26826780       0.002
   0.33550378  0.00000000  0.26826780       0.002
   0.40260454  0.00000000  0.26826780       0.002
   0.46970529  0.00000000  0.26826780       0.002
   0.06710076  0.06710076  0.26826780       0.002
   0.13420151  0.06710076  0.26826780       0.005
   0.20130227  0.06710076  0.26826780       0.005
   0.26840302  0.06710076  0.26826780       0.005
   0.33550378  0.06710076  0.26826780       0.005
   0.40260454  0.06710076  0.26826780       0.005
   0.46970529  0.06710076  0.26826780       0.005
   0.13420151  0.13420151  0.26826780       0.002
   0.20130227  0.13420151  0.26826780       0.005
   0.26840302  0.13420151  0.26826780       0.005
   0.33550378  0.13420151  0.26826780       0.005
   0.40260454  0.13420151  0.26826780       0.005
   0.46970529  0.13420151  0.26826780       0.005
   0.20130227  0.20130227  0.26826780       0.002
   0.26840302  0.20130227  0.26826780       0.005
   0.33550378  0.20130227  0.26826780       0.005
   0.40260454  0.20130227  0.26826780       0.005
   0.46970529  0.20130227  0.26826780       0.005
   0.26840302  0.26840302  0.26826780       0.002
   0.33550378  0.26840302  0.26826780       0.005
   0.40260454  0.26840302  0.26826780       0.005
   0.46970529  0.26840302  0.26826780       0.005
   0.33550378  0.33550378  0.26826780       0.002
   0.40260454  0.33550378  0.26826780       0.005
   0.46970529  0.33550378  0.26826780       0.005
   0.40260454  0.40260454  0.26826780       0.002
   0.46970529  0.40260454  0.26826780       0.005
   0.46970529  0.46970529  0.26826780       0.002
   0.00000000  0.00000000  0.33533475       0.001
   0.06710076  0.00000000  0.33533475       0.002
   0.13420151  0.00000000  0.33533475       0.002
   0.20130227  0.00000000  0.33533475       0.002
   0.26840302  0.00000000  0.33533475       0.002
   0.33550378  0.00000000  0.33533475       0.002
   0.40260454  0.00000000  0.33533475       0.002
   0.46970529  0.00000000  0.33533475       0.002
   0.06710076  0.06710076  0.33533475       0.002
   0.13420151  0.06710076  0.33533475       0.005
   0.20130227  0.06710076  0.33533475       0.005
   0.26840302  0.06710076  0.33533475       0.005
   0.33550378  0.06710076  0.33533475       0.005
   0.40260454  0.06710076  0.33533475       0.005
   0.46970529  0.06710076  0.33533475       0.005
   0.13420151  0.13420151  0.33533475       0.002
   0.20130227  0.13420151  0.33533475       0.005
   0.26840302  0.13420151  0.33533475       0.005
   0.33550378  0.13420151  0.33533475       0.005
   0.40260454  0.13420151  0.33533475       0.005
   0.46970529  0.13420151  0.33533475       0.005
   0.20130227  0.20130227  0.33533475       0.002
   0.26840302  0.20130227  0.33533475       0.005
   0.33550378  0.20130227  0.33533475       0.005
   0.40260454  0.20130227  0.33533475       0.005
   0.46970529  0.20130227  0.33533475       0.005
   0.26840302  0.26840302  0.33533475       0.002
   0.33550378  0.26840302  0.33533475       0.005
   0.40260454  0.26840302  0.33533475       0.005
   0.46970529  0.26840302  0.33533475       0.005
   0.33550378  0.33550378  0.33533475       0.002
   0.40260454  0.33550378  0.33533475       0.005
   0.46970529  0.33550378  0.33533475       0.005
   0.40260454  0.40260454  0.33533475       0.002
   0.46970529  0.40260454  0.33533475       0.005
   0.46970529  0.46970529  0.33533475       0.002
   0.00000000  0.00000000  0.40240170       0.001
   0.06710076  0.00000000  0.40240170       0.002
   0.13420151  0.00000000  0.40240170       0.002
   0.20130227  0.00000000  0.40240170       0.002
   0.26840302  0.00000000  0.40240170       0.002
   0.33550378  0.00000000  0.40240170       0.002
   0.40260454  0.00000000  0.40240170       0.002
   0.46970529  0.00000000  0.40240170       0.002
   0.06710076  0.06710076  0.40240170       0.002
   0.13420151  0.06710076  0.40240170       0.005
   0.20130227  0.06710076  0.40240170       0.005
   0.26840302  0.06710076  0.40240170       0.005
   0.33550378  0.06710076  0.40240170       0.005
   0.40260454  0.06710076  0.40240170       0.005
   0.46970529  0.06710076  0.40240170       0.005
   0.13420151  0.13420151  0.40240170       0.002
   0.20130227  0.13420151  0.40240170       0.005
   0.26840302  0.13420151  0.40240170       0.005
   0.33550378  0.13420151  0.40240170       0.005
   0.40260454  0.13420151  0.40240170       0.005
   0.46970529  0.13420151  0.40240170       0.005
   0.20130227  0.20130227  0.40240170       0.002
   0.26840302  0.20130227  0.40240170       0.005
   0.33550378  0.20130227  0.40240170       0.005
   0.40260454  0.20130227  0.40240170       0.005
   0.46970529  0.20130227  0.40240170       0.005
   0.26840302  0.26840302  0.40240170       0.002
   0.33550378  0.26840302  0.40240170       0.005
   0.40260454  0.26840302  0.40240170       0.005
   0.46970529  0.26840302  0.40240170       0.005
   0.33550378  0.33550378  0.40240170       0.002
   0.40260454  0.33550378  0.40240170       0.005
   0.46970529  0.33550378  0.40240170       0.005
   0.40260454  0.40260454  0.40240170       0.002
   0.46970529  0.40260454  0.40240170       0.005
   0.46970529  0.46970529  0.40240170       0.002
   0.00000000  0.00000000  0.46946865       0.001
   0.06710076  0.00000000  0.46946865       0.002
   0.13420151  0.00000000  0.46946865       0.002
   0.20130227  0.00000000  0.46946865       0.002
   0.26840302  0.00000000  0.46946865       0.002
   0.33550378  0.00000000  0.46946865       0.002
   0.40260454  0.00000000  0.46946865       0.002
   0.46970529  0.00000000  0.46946865       0.002
   0.06710076  0.06710076  0.46946865       0.002
   0.13420151  0.06710076  0.46946865       0.005
   0.20130227  0.06710076  0.46946865       0.005
   0.26840302  0.06710076  0.46946865       0.005
   0.33550378  0.06710076  0.46946865       0.005
   0.40260454  0.06710076  0.46946865       0.005
   0.46970529  0.06710076  0.46946865       0.005
   0.13420151  0.13420151  0.46946865       0.002
   0.20130227  0.13420151  0.46946865       0.005
   0.26840302  0.13420151  0.46946865       0.005
   0.33550378  0.13420151  0.46946865       0.005
   0.40260454  0.13420151  0.46946865       0.005
   0.46970529  0.13420151  0.46946865       0.005
   0.20130227  0.20130227  0.46946865       0.002
   0.26840302  0.20130227  0.46946865       0.005
   0.33550378  0.20130227  0.46946865       0.005
   0.40260454  0.20130227  0.46946865       0.005
   0.46970529  0.20130227  0.46946865       0.005
   0.26840302  0.26840302  0.46946865       0.002
   0.33550378  0.26840302  0.46946865       0.005
   0.40260454  0.26840302  0.46946865       0.005
   0.46970529  0.26840302  0.46946865       0.005
   0.33550378  0.33550378  0.46946865       0.002
   0.40260454  0.33550378  0.46946865       0.005
   0.46970529  0.33550378  0.46946865       0.005
   0.40260454  0.40260454  0.46946865       0.002
   0.46970529  0.40260454  0.46946865       0.005
   0.46970529  0.46970529  0.46946865       0.002
 
 k-points in reciprocal lattice and weights: Ni7CoMn5CrSn2                           
   0.00000000  0.00000000  0.00000000       0.000
   0.06666667  0.00000000  0.00000000       0.001
   0.13333333  0.00000000  0.00000000       0.001
   0.20000000  0.00000000  0.00000000       0.001
   0.26666667  0.00000000  0.00000000       0.001
   0.33333333  0.00000000  0.00000000       0.001
   0.40000000  0.00000000  0.00000000       0.001
   0.46666667  0.00000000  0.00000000       0.001
   0.06666667  0.06666667  0.00000000       0.001
   0.13333333  0.06666667  0.00000000       0.002
   0.20000000  0.06666667  0.00000000       0.002
   0.26666667  0.06666667  0.00000000       0.002
   0.33333333  0.06666667  0.00000000       0.002
   0.40000000  0.06666667  0.00000000       0.002
   0.46666667  0.06666667  0.00000000       0.002
   0.13333333  0.13333333  0.00000000       0.001
   0.20000000  0.13333333  0.00000000       0.002
   0.26666667  0.13333333  0.00000000       0.002
   0.33333333  0.13333333  0.00000000       0.002
   0.40000000  0.13333333  0.00000000       0.002
   0.46666667  0.13333333  0.00000000       0.002
   0.20000000  0.20000000  0.00000000       0.001
   0.26666667  0.20000000  0.00000000       0.002
   0.33333333  0.20000000  0.00000000       0.002
   0.40000000  0.20000000  0.00000000       0.002
   0.46666667  0.20000000  0.00000000       0.002
   0.26666667  0.26666667  0.00000000       0.001
   0.33333333  0.26666667  0.00000000       0.002
   0.40000000  0.26666667  0.00000000       0.002
   0.46666667  0.26666667  0.00000000       0.002
   0.33333333  0.33333333  0.00000000       0.001
   0.40000000  0.33333333  0.00000000       0.002
   0.46666667  0.33333333  0.00000000       0.002
   0.40000000  0.40000000  0.00000000       0.001
   0.46666667  0.40000000  0.00000000       0.002
   0.46666667  0.46666667  0.00000000       0.001
   0.00000000  0.00000000  0.06666667       0.001
   0.06666667  0.00000000  0.06666667       0.002
   0.13333333  0.00000000  0.06666667       0.002
   0.20000000  0.00000000  0.06666667       0.002
   0.26666667  0.00000000  0.06666667       0.002
   0.33333333  0.00000000  0.06666667       0.002
   0.40000000  0.00000000  0.06666667       0.002
   0.46666667  0.00000000  0.06666667       0.002
   0.06666667  0.06666667  0.06666667       0.002
   0.13333333  0.06666667  0.06666667       0.005
   0.20000000  0.06666667  0.06666667       0.005
   0.26666667  0.06666667  0.06666667       0.005
   0.33333333  0.06666667  0.06666667       0.005
   0.40000000  0.06666667  0.06666667       0.005
   0.46666667  0.06666667  0.06666667       0.005
   0.13333333  0.13333333  0.06666667       0.002
   0.20000000  0.13333333  0.06666667       0.005
   0.26666667  0.13333333  0.06666667       0.005
   0.33333333  0.13333333  0.06666667       0.005
   0.40000000  0.13333333  0.06666667       0.005
   0.46666667  0.13333333  0.06666667       0.005
   0.20000000  0.20000000  0.06666667       0.002
   0.26666667  0.20000000  0.06666667       0.005
   0.33333333  0.20000000  0.06666667       0.005
   0.40000000  0.20000000  0.06666667       0.005
   0.46666667  0.20000000  0.06666667       0.005
   0.26666667  0.26666667  0.06666667       0.002
   0.33333333  0.26666667  0.06666667       0.005
   0.40000000  0.26666667  0.06666667       0.005
   0.46666667  0.26666667  0.06666667       0.005
   0.33333333  0.33333333  0.06666667       0.002
[...]
  0.000   0.000   0.011   0.000  -0.000   0.000  -0.000   0.000  -0.006   0.000   0.000   0.000  -3.195   0.000   0.000   0.000
 -0.000   0.000  -0.000   0.000   0.011   0.000   0.000   0.000   0.000   0.000  -0.006   0.000   0.000   0.000  -3.163   0.000
 -0.000   0.000  -0.000   0.000   0.000   0.000   0.000   0.000   0.000   0.000   0.000   0.000   0.000   0.000  -0.000   0.000
  0.011   0.000   0.000   0.000  -0.000   0.000  -0.006   0.000  -0.000   0.000   0.000   0.000   0.000   0.000  -0.000   0.000
 -0.000   0.000   0.000   0.000  -0.000   0.000   0.000   0.000  -0.000   0.000  -0.000   0.000  -0.000   0.000   0.000   0.000
  0.000   0.000   0.000   0.000  -0.000   0.000   0.000   0.000   0.000   0.000  -0.000   0.000   0.000   0.000   0.000   0.000
  0.000   0.000   0.000   0.000  -0.000   0.000   0.000   0.000   0.000   0.000  -0.000   0.000   0.000   0.000   0.000   0.000
 pseudopotential strength for first ion, spin component:           2
-43.685   0.000  -0.000   0.000  -0.000   0.000   7.046   0.000   0.000   0.000   0.000   0.000   0.000   0.000  -0.000   0.000
 -0.000   0.000 -43.672   0.000  -0.000   0.000   0.000   0.000   7.041   0.000   0.000   0.000  -0.013   0.000  -0.000   0.000
 -0.000   0.000  -0.000   0.000 -43.688   0.000   0.000   0.000   0.000   0.000   7.047   0.000  -0.000   0.000  -0.013   0.000
  7.046   0.000   0.000   0.000   0.000   0.000   5.817   0.000   0.000   0.000   0.000   0.000  -0.000   0.000   0.000   0.000
  0.000   0.000   7.041   0.000   0.000   0.000   0.000   0.000   5.818   0.000   0.000   0.000   0.006   0.000   0.000   0.000
  0.000   0.000   0.000   0.000   7.047   0.000   0.000   0.000   0.000   0.000   5.816   0.000   0.000   0.000   0.006   0.000
  0.000   0.000  -0.013   0.000  -0.000   0.000  -0.000   0.000   0.006   0.000   0.000   0.000  -1.082   0.000   0.000   0.000
 -0.000   0.000  -0.000   0.000  -0.013   0.000   0.000   0.000   0.000   0.000   0.006   0.000   0.000   0.000  -1.079   0.000
 -0.000   0.000  -0.000   0.000  -0.000   0.000   0.000   0.000   0.000   0.000   0.000   0.000   0.000   0.000  -0.000   0.000
 -0.013   0.000   0.000   0.000  -0.000   0.000   0.006   0.000  -0.000   0.000   0.000   0.000   0.000   0.000   0.000   0.000
 -0.000   0.000   0.000   0.000   0.000   0.000   0.000   0.000  -0.000   0.000  -0.000   0.000   0.000   0.000   0.000   0.000
  0.000   0.000  -0.013   0.000  -0.000   0.000  -0.000   0.000   0.006   0.000   0.000   0.000  -1.614   0.000   0.000   0.000
 -0.000   0.000  -0.000   0.000  -0.013   0.000   0.000   0.000   0.000   0.000   0.006   0.000   0.000   0.000  -1.611   0.000
 -0.000   0.000  -0.000   0.000  -0.000   0.000   0.000   0.000   0.000   0.000   0.000   0.000   0.000   0.000  -0.000   0.000
 -0.013   0.000   0.000   0.000  -0.000   0.000   0.006   0.000  -0.000   0.000   0.000   0.000   0.000   0.000   0.000   0.000
 -0.000   0.000   0.000   0.000   0.000   0.000   0.000   0.000  -0.000   0.000  -0.000   0.000   0.000   0.000   0.000   0.000
 -0.000   0.000   0.000   0.000  -0.000   0.000  -0.000   0.000   0.000   0.000  -0.000   0.000   0.000   0.000   0.000   0.000
 -0.000   0.000   0.000   0.000  -0.000   0.000  -0.000   0.000   0.000   0.000  -0.000   0.000   0.000   0.000   0.000   0.000
 total augmentation occupancy for first ion, spin component:           1
  1.994   0.000   0.000  -0.021   0.000   0.000   0.000   0.000   0.000  -0.004   0.000   0.000   0.000   0.000   0.004   0.000
  0.000   1.994   0.000   0.000  -0.021   0.000  -0.004   0.000   0.000   0.000   0.000   0.004   0.000   0.000   0.000   0.000
  0.000   0.000   1.993   0.000   0.000  -0.021   0.000  -0.004   0.000   0.000   0.000   0.000   0.004   0.000   0.000   0.000
 -0.021   0.000   0.000   0.155   0.000   0.000   0.000   0.000   0.000  -0.027   0.000   0.000   0.000   0.000  -0.006   0.000
  0.000  -0.021   0.000   0.000   0.160   0.000  -0.031   0.000   0.000   0.000   0.000  -0.006   0.000   0.000   0.000   0.000
  0.000   0.000  -0.021   0.000   0.000   0.161   0.000  -0.030   0.000   0.000   0.000   0.000  -0.006   0.000   0.000   0.000
  0.000  -0.004   0.000   0.000  -0.031   0.000   2.049   0.000   0.000   0.000   0.000  -0.973   0.000   0.000   0.000   0.000
  0.000   0.000  -0.004   0.000   0.000  -0.030   0.000   2.038   0.000   0.000   0.000   0.000  -0.949   0.000   0.000   0.000
  0.000   0.000   0.000   0.000   0.000   0.000   0.000   0.000   2.356   0.000  -0.009   0.000   0.000  -1.190   0.000   0.003
 -0.004   0.000   0.000  -0.027   0.000   0.000   0.000   0.000   0.000   2.054   0.000   0.000   0.000   0.000  -0.991   0.000
  0.000   0.000   0.000   0.000   0.000   0.000   0.000   0.000  -0.009   0.000   2.373   0.000   0.000   0.003   0.000  -1.208
  0.000   0.004   0.000   0.000  -0.006   0.000  -0.973   0.000   0.000   0.000   0.000   1.280   0.000   0.000   0.000   0.000
  0.000   0.000   0.004   0.000   0.000  -0.006   0.000  -0.949   0.000   0.000   0.000   0.000   1.267   0.000   0.000   0.000
  0.000   0.000   0.000   0.000   0.000   0.000   0.000   0.000  -1.190   0.000   0.003   0.000   0.000   1.329   0.000  -0.008
  0.004   0.000   0.000  -0.006   0.000   0.000   0.000   0.000   0.000  -0.991   0.000   0.000   0.000   0.000   1.293   0.000
  0.000   0.000   0.000   0.000   0.000   0.000   0.000   0.000   0.003   0.000  -1.208   0.000   0.000  -0.008   0.000   1.329
  0.000   0.000   0.000   0.000   0.000   0.000   0.000   0.000   0.011   0.000  -0.006   0.000   0.000  -0.000   0.000   0.019
  0.000   0.000   0.000   0.000   0.000   0.000   0.000   0.000  -0.002   0.000   0.000   0.000   0.000   0.001   0.000  -0.000
 total augmentation occupancy for first ion, spin component:           2
 -0.002   0.000   0.000  -0.008   0.000   0.000   0.000   0.000   0.000  -0.009   0.000   0.000   0.000   0.000   0.009   0.000
  0.000  -0.002   0.000   0.000  -0.008   0.000  -0.009   0.000   0.000   0.000   0.000   0.009   0.000   0.000   0.000   0.000
  0.000   0.000  -0.002   0.000   0.000  -0.008   0.000  -0.009   0.000   0.000   0.000   0.000   0.009   0.000   0.000   0.000
 -0.008   0.000   0.000  -0.005   0.000   0.000   0.000   0.000   0.000   0.049   0.000   0.000   0.000   0.000  -0.006   0.000
  0.000  -0.008   0.000   0.000  -0.010   0.000   0.050   0.000   0.000   0.000   0.000  -0.004   0.000   0.000   0.000   0.000
  0.000   0.000  -0.008   0.000   0.000  -0.010   0.000   0.049   0.000   0.000   0.000   0.000  -0.004   0.000   0.000   0.000
  0.000  -0.009   0.000   0.000   0.050   0.000   1.538   0.000   0.000   0.000   0.000  -0.463   0.000   0.000   0.000   0.000
  0.000   0.000  -0.009   0.000   0.000   0.049   0.000   1.499   0.000   0.000   0.000   0.000  -0.453   0.000   0.000   0.000
  0.000   0.000   0.000   0.000   0.000   0.000   0.000   0.000   2.032   0.000  -0.009   0.000   0.000  -0.695   0.000   0.013
 -0.009   0.000   0.000   0.049   0.000   0.000   0.000   0.000   0.000   1.577   0.000   0.000   0.000   0.000  -0.465   0.000
  0.000   0.000   0.000   0.000   0.000   0.000   0.000   0.000  -0.009   0.000   2.042   0.000   0.000   0.013   0.000  -0.690
  0.000   0.009   0.000   0.000  -0.004   0.000  -0.463   0.000   0.000   0.000   0.000  -0.108   0.000   0.000   0.000   0.000
  0.000   0.000   0.009   0.000   0.000  -0.004   0.000  -0.453   0.000   0.000   0.000   0.000  -0.115   0.000   0.000   0.000
  0.000   0.000   0.000   0.000   0.000   0.000   0.000   0.000  -0.695   0.000   0.013   0.000   0.000  -0.008   0.000  -0.005
  0.009   0.000   0.000  -0.006   0.000   0.000   0.000   0.000   0.000  -0.465   0.000   0.000   0.000   0.000  -0.122   0.000
  0.000   0.000   0.000   0.000   0.000   0.000   0.000   0.000   0.013   0.000  -0.690   0.000   0.000  -0.005   0.000  -0.005
  0.000   0.000   0.000   0.000   0.000   0.000   0.000   0.000   0.005   0.000  -0.002   0.000   0.000  -0.010   0.000  -0.016
  0.000   0.000   0.000   0.000   0.000   0.000   0.000   0.000  -0.002   0.000  -0.000   0.000   0.000   0.001   0.000   0.000


------------------------ aborting loop because EDIFF is reached ----------------------------------------


 


 total charge     
 
# of ion       s       p       d       tot
------------------------------------------
    1        0.314   6.295   6.130  12.739
    2        0.314   6.295   6.130  12.739
    3        0.317   6.298   6.134  12.749
    4        0.317   6.298   6.134  12.749
    5        0.340   6.297   6.014  12.651
    6        0.340   6.297   6.014  12.651
    7        0.340   6.297   6.014  12.651
    8        0.340   6.297   6.014  12.651
    9        0.398   6.388   7.382  14.168
   10        0.397   6.386   7.362  14.146
   11        0.398   6.388   7.382  14.168
   12        0.397   6.386   7.362  14.146
   13        1.272   1.867   0.340   3.480
   14        1.272   1.867   0.340   3.480
   15        1.272   1.867   0.340   3.480
   16        1.272   1.867   0.340   3.480
--------------------------------------------------
tot          9.302  83.392  79.432 172.126
 


 magnetization (x)
 
# of ion       s       p       d       tot
------------------------------------------
    1        0.004  -0.019   2.354   2.340
    2        0.004  -0.019   2.354   2.340
    3        0.005  -0.015   2.367   2.358
    4        0.005  -0.015   2.367   2.358
    5        0.001  -0.015   2.720   2.706
    6        0.001  -0.015   2.720   2.706
    7        0.001  -0.015   2.720   2.706
    8        0.001  -0.015   2.720   2.706
    9       -0.006  -0.029   1.253   1.218
   10       -0.007  -0.032   1.339   1.301
   11       -0.006  -0.029   1.253   1.218
   12       -0.007  -0.032   1.339   1.301
   13       -0.018  -0.141  -0.018  -0.178
   14       -0.018  -0.141  -0.018  -0.178
   15       -0.018  -0.141  -0.018  -0.178
   16       -0.018  -0.141  -0.018  -0.178
--------------------------------------------------
tot         -0.075  -0.813  25.433  24.545
 
    CHARGE:  cpu time    4.7683: real time    4.7838
    FORLOC:  cpu time    0.0080: real time    0.0093
    FORNL :  cpu time   45.9509: real time   46.0963
    STRESS:  cpu time  137.9486: real time  138.3968
    FORCOR:  cpu time    0.1160: real time    0.1183
    FORHAR:  cpu time    0.0240: real time    0.0213
    MIXING:  cpu time    0.0040: real time    0.0058
    OFIELD:  cpu time    0.0000: real time    0.0001

  FORCE on cell =-STRESS in cart. coord.  units (eV):
  Direction    XX          YY          ZZ          XY          YZ          ZX
  --------------------------------------------------------------------------------------
  Alpha Z   959.71904   959.71904   959.71904
  Ewald   -6722.71233 -6722.71233 -6719.19329     0.00000     0.00000     0.00000
  Hartree  3110.46862  3110.46862  3115.74144    -0.00000     0.00000    -0.00000
  E(xc)   -1171.84952 -1171.84952 -1171.85055    -0.00000     0.00000     0.00000
  Local     675.33114   675.33114   663.90531     0.00000     0.00000     0.00000
  n-local  -238.71532  -236.29391  -237.86044    -0.38618    -0.80848     0.04776
  augment  1686.88079  1686.88079  1688.68632     0.00000     0.00000     0.00000
  Kinetic  1696.55849  1702.28974  1700.66023    -1.39389    -1.48159    -0.72625
  Fock        0.00000     0.00000     0.00000     0.00000     0.00000     0.00000
  -------------------------------------------------------------------------------------
  Total      -0.24276    -0.24276    -0.19195     0.00000     0.00000     0.00000
  in kB      -1.79003    -1.79003    -1.41536     0.00000     0.00000     0.00000
  external pressure =       -1.67 kB  Pullay stress =        0.00 kB


 VOLUME and BASIS-vectors are now :
 -----------------------------------------------------------------------------
  energy-cutoff  :      500.00
  volume of cell :      217.28
      direct lattice vectors                 reciprocal lattice vectors
     6.010861221  0.000000000  0.000000000     0.166365511  0.000000000  0.000000000
     0.000000000  6.010861221  0.000000000     0.000000000  0.166365511  0.000000000
     0.000000000  0.000000000  6.013891075     0.000000000  0.000000000  0.166281695

  length of vectors
     6.010861221  6.010861221  6.013891075     0.166365511  0.166365511  0.166281695


 FORCES acting on ions
    electron-ion (+dipol)            ewald-force                    non-local-force                 convergence-correction
 -----------------------------------------------------------------------------------------------
   0.325E-10 -.290E-10 0.408E-10   0.782E-13 -.213E-13 0.711E-14   0.000E+00 0.000E+00 0.000E+00   -.262E-12 -.138E-12 -.274E-12
   0.350E-10 -.290E-10 -.239E-10   0.853E-13 0.711E-14 -.568E-13   0.000E+00 0.000E+00 0.000E+00   0.323E-12 -.225E-12 0.262E-12
   -.289E-10 -.290E-10 0.255E-10   -.426E-13 0.213E-13 0.782E-13   0.000E+00 0.000E+00 0.000E+00   0.222E-12 -.221E-12 0.220E-12
   0.261E-10 0.462E-10 -.238E-10   0.924E-13 -.711E-14 0.711E-13   0.000E+00 0.000E+00 0.000E+00   -.272E-12 -.295E-12 -.221E-12
   -.263E+02 0.263E+02 0.212E-13   0.269E+02 -.269E+02 0.881E-13   -.639E+00 0.639E+00 0.000E+00   -.989E-03 0.989E-03 0.480E-13
   -.263E+02 -.263E+02 0.520E-11   0.269E+02 0.269E+02 0.299E-13   -.639E+00 -.639E+00 -.434E-18   -.989E-03 -.989E-03 -.780E-13
   0.263E+02 0.263E+02 0.915E-11   -.269E+02 -.269E+02 0.579E-13   0.639E+00 0.639E+00 -.434E-18   0.989E-03 0.989E-03 -.361E-13
   0.263E+02 -.263E+02 0.332E-11   -.269E+02 0.269E+02 -.111E-12   0.639E+00 -.639E+00 0.000E+00   0.989E-03 -.989E-03 0.257E-13
   -.632E-11 0.168E-10 0.927E-10   -.114E-12 -.284E-13 -.213E-13   0.000E+00 0.000E+00 0.000E+00   -.475E-12 -.290E-12 -.301E-12
   -.169E-11 -.133E-10 -.909E-10   0.327E-12 -.114E-12 -.284E-13   0.000E+00 0.000E+00 0.000E+00   -.513E-12 -.854E-13 -.250E-12
   -.278E-10 0.168E-10 -.909E-10   -.121E-12 -.284E-13 -.355E-13   0.000E+00 0.000E+00 0.000E+00   0.266E-12 -.461E-12 0.291E-12
   0.800E-11 0.234E-10 0.993E-10   -.178E-12 0.107E-12 0.000E+00   0.000E+00 0.000E+00 0.000E+00   0.361E-12 -.428E-12 0.233E-12
   -.878E+01 0.878E+01 0.363E-12   0.860E+01 -.860E+01 -.354E-13   0.182E+00 -.182E+00 0.000E+00   -.139E-03 0.139E-03 -.997E-14
   0.878E+01 0.878E+01 0.986E-13   -.860E+01 -.860E+01 0.144E-13   -.182E+00 -.182E+00 0.000E+00   0.139E-03 0.139E-03 0.100E-13
   -.878E+01 -.878E+01 -.496E-12   0.860E+01 0.860E+01 -.211E-13   0.182E+00 0.182E+00 0.000E+00   -.139E-03 -.139E-03 0.773E-14
   0.878E+01 -.878E+01 -.192E-12   -.860E+01 0.860E+01 0.210E-13   -.182E+00 0.182E+00 0.000E+00   0.139E-03 -.139E-03 -.659E-14
 -----------------------------------------------------------------------------------------------
   0.170E-09 -.107E-09 0.462E-10   -.604E-13 -.391E-13 0.580E-13   0.000E+00 -.278E-16 -.867E-18   -.116E-11 -.827E-12 -.784E-13
 
 
 POSITION                                       TOTAL-FORCE (eV/Angst)
 -----------------------------------------------------------------------------------
      3.00543      0.00000      3.00695        -0.000000      0.000000      0.000000
      3.00543      0.00000      0.00000        -0.000000      0.000000      0.000000
      0.00000      0.00000      3.00695        -0.000000      0.000000      0.000000
      3.00543      3.00543      0.00000        -0.000000      0.000000      0.000000
      1.50584      1.49959      4.51042         0.005956     -0.005956     -0.000000
      1.50584      4.51127      1.50347         0.005956      0.005956      0.000000
      4.50502      1.49959      1.50347        -0.005956     -0.005956     -0.000000
      4.50502      4.51127      4.51042        -0.005956      0.005956      0.000000
      0.00000      3.00543      3.00695        -0.000000      0.000000      0.000000
      0.00000      0.00000      0.00000        -0.000000      0.000000      0.000000
      0.00000      3.00543      0.00000        -0.000000      0.000000      0.000000
      3.00543      3.00543      3.00695        -0.000000      0.000000      0.000000
      1.48143      1.52400      1.50347        -0.000406      0.000406      0.000000
      4.52943      1.52400      4.51042         0.000406      0.000406      0.000000
      1.48143      4.48686      4.51042        -0.000406     -0.000406      0.000000
      4.52943      4.48686      1.50347         0.000406     -0.000406      0.000000
 -----------------------------------------------------------------------------------
    total drift:                                0.000000     -0.000000      0.000000


--------------------------------------------------------------------------------------------------------



  FREE ENERGIE OF THE ION-ELECTRON SYSTEM (eV)
  ---------------------------------------------------
  free  energy   TOTEN  =      -102.20209681 eV

  energy  without entropy=     -102.20570440  energy(sigma->0) =     -102.20329934
 


--------------------------------------------------------------------------------------------------------


    POTLOK:  cpu time    0.5600: real time    0.5625


--------------------------------------------------------------------------------------------------------


     LOOP+:  cpu time 4783.7950: real time 4799.3595
    4ORBIT:  cpu time    0.0000: real time    0.0000
 


 total charge     
 
# of ion       s       p       d       tot
------------------------------------------
    1        0.314   6.295   6.130  12.739
    2        0.314   6.295   6.130  12.739
    3        0.317   6.298   6.134  12.749
    4        0.317   6.298   6.134  12.749
    5        0.340   6.297   6.014  12.651
    6        0.340   6.297   6.014  12.651
    7        0.340   6.297   6.014  12.651
    8        0.340   6.297   6.014  12.651
    9        0.398   6.388   7.382  14.168
   10        0.397   6.386   7.362  14.146
   11        0.398   6.388   7.382  14.168
   12        0.397   6.386   7.362  14.146
   13        1.272   1.867   0.340   3.480
   14        1.272   1.867   0.340   3.480
   15        1.272   1.867   0.340   3.480
   16        1.272   1.867   0.340   3.480
--------------------------------------------------
tot          9.302  83.392  79.432 172.126
 


 magnetization (x)
 
# of ion       s       p       d       tot
------------------------------------------
    1        0.004  -0.019   2.354   2.340
    2        0.004  -0.019   2.354   2.340
    3        0.005  -0.015   2.367   2.358
    4        0.005  -0.015   2.367   2.358
    5        0.001  -0.015   2.720   2.706
    6        0.001  -0.015   2.720   2.706
    7        0.001  -0.015   2.720   2.706
    8        0.001  -0.015   2.720   2.706
    9       -0.006  -0.029   1.253   1.218
   10       -0.007  -0.032   1.339   1.301
   11       -0.006  -0.029   1.253   1.218
   12       -0.007  -0.032   1.339   1.301
   13       -0.018  -0.141  -0.018  -0.178
   14       -0.018  -0.141  -0.018  -0.178
   15       -0.018  -0.141  -0.018  -0.178
   16       -0.018  -0.141  -0.018  -0.178
--------------------------------------------------
tot         -0.075  -0.813  25.433  24.545
 

 total amount of memory used by VASP MPI-rank0   399358. kBytes
=======================================================================

   base      :      30000. kBytes
   nonlr-proj:       7186. kBytes
   fftplans  :      14218. kBytes
   grid      :       9142. kBytes
   one-center:        124. kBytes
   wavefun   :     338688. kBytes
 
  
  
 General timing and accounting informations for this job:
 ========================================================
  
                  Total CPU time used (sec):     4834.782
                            User time (sec):     4815.193
                          System time (sec):       19.589
                         Elapsed time (sec):     4851.430
  
                   Maximum memory used (kb):      460312.
                   Average memory used (kb):           0.
  
                          Minor page faults:       386087
                          Major page faults:            0
                 Voluntary context switches:         2014
