 vasp.6.1.1 19Jun20 (build Jan 21 2021 08:43:03) complex                        
  
 executed on             LinuxIFC date 2023.04.01  04:39:07
 running on   80 total cores
 distrk:  each k-point on   80 cores,    1 groups
 distr:  one band on NCORE=  10 cores,    8 groups


--------------------------------------------------------------------------------------------------------


 INCAR:
 POTCAR:    PAW_PBE Fe_pv 02Aug2007               
 POTCAR:    PAW_PBE Co_pv 23Apr2009               
 POTCAR:       PAW_PBE Sn 08Apr2002               
 POTCAR:    PAW_PBE Fe_pv 02Aug2007               
   VRHFIN =Fe:  3pd7s1                                                                              
   LEXCH  = PE                                                                                      
   EATOM  =  2457.4239 eV,  180.6156 Ry                                                             
                                                                                                    
   TITEL  = PAW_PBE Fe_pv 02Aug2007                                                                 
   LULTRA =        F    use ultrasoft PP ?                                                          
   IUNSCR =        1    unscreen: 0-lin 1-nonlin 2-no                                               
   RPACOR =    1.750    partial core radius                                                         
   POMASS =   55.847; ZVAL   =   14.000    mass and valenz                                          
   RCORE  =    2.200    outmost cutoff radius                                                       
   RWIGS  =    2.200; RWIGS  =    1.164    wigner-seitz radius (au A)                               
   ENMAX  =  293.238; ENMIN  =  219.928 eV                                                          
   ICORE  =        3    local potential                                                             
   LCOR   =        T    correct aug charges                                                         
   LPAW   =        T    paw PP                                                                      
   EAUG   =  578.342                                                                                
   DEXC   =    0.000                                                                                
   RMAX   =    2.249    core radius for proj-oper                                                   
   RAUG   =    1.300    factor for augmentation sphere                                              
   RDEP   =    2.296    radius for radial grids                                                     
   RDEPT  =    1.766    core radius for aug-charge                                                  
                                                                                                    
   Atomic configuration                                                                             
    8 entries                                                                                       
     n  l   j            E        occ.                                                              
     1  0  0.50     -6993.8440   2.0000                                                             
     2  0  0.50      -814.6047   2.0000                                                             
     2  1  1.50      -693.3689   6.0000                                                             
     3  0  0.50       -89.4732   2.0000                                                             
     3  1  1.50       -55.6373   6.0000                                                             
     3  2  2.50        -3.8151   7.0000                                                             
     4  0  0.50        -4.2551   1.0000                                                             
     4  3  2.50        -1.3606   0.0000                                                             
   Description                                                                                      
     l       E           TYP  RCUT    TYP  RCUT                                                     
     1    -55.6372668     23  2.000                                                                 
     1     -5.4423304     23  2.000                                                                 
     2     -3.8151096     23  2.200                                                                 
     2     -5.1756922     23  2.200                                                                 
     0     -4.2550951     23  2.200                                                                 
     0     27.2116520     23  2.200                                                                 
     3     -1.3605826     23  2.200                                                                 
  local pseudopotential read in
  partial core-charges read in
  partial kinetic energy density read in
  atomic valenz-charges read in
  non local Contribution for L=           1  read in
    real space projection operators read in
  non local Contribution for L=           1  read in
    real space projection operators read in
  non local Contribution for L=           2  read in
    real space projection operators read in
  non local Contribution for L=           2  read in
    real space projection operators read in
  non local Contribution for L=           0  read in
    real space projection operators read in
  non local Contribution for L=           0  read in
    real space projection operators read in
    PAW grid and wavefunctions read in
 
   number of l-projection  operators is LMAX  =           6
   number of lm-projection operators is LMMAX =          18
 
 POTCAR:    PAW_PBE Co_pv 23Apr2009               
   VRHFIN =Co: 3pd7s1                                                                               
   LEXCH  = PE                                                                                      
   EATOM  =  2948.1334 eV,  216.6817 Ry                                                             
                                                                                                    
   TITEL  = PAW_PBE Co_pv 23Apr2009                                                                 
   LULTRA =        F    use ultrasoft PP ?                                                          
   IUNSCR =        1    unscreen: 0-lin 1-nonlin 2-no                                               
   RPACOR =    2.000    partial core radius                                                         
   POMASS =   58.933; ZVAL   =   15.000    mass and valenz                                          
   RCORE  =    2.300    outmost cutoff radius                                                       
   RWIGS  =    2.460; RWIGS  =    1.302    wigner-seitz radius (au A)                               
   ENMAX  =  271.042; ENMIN  =  203.281 eV                                                          
   ICORE  =        3    local potential                                                             
   LCOR   =        T    correct aug charges                                                         
   LPAW   =        T    paw PP                                                                      
   EAUG   =  543.066                                                                                
   DEXC   =    0.000                                                                                
   RMAX   =    2.360    core radius for proj-oper                                                   
   RAUG   =    1.300    factor for augmentation sphere                                              
   RDEP   =    2.393    radius for radial grids                                                     
   RDEPT  =    1.841    core radius for aug-charge                                                  
                                                                                                    
   Atomic configuration                                                                             
    8 entries                                                                                       
     n  l   j            E        occ.                                                              
     1  0  0.50     -7587.6674   2.0000                                                             
     2  0  0.50      -893.6084   2.0000                                                             
     2  1  1.50      -764.5805   6.0000                                                             
     3  0  0.50       -97.5973   2.0000                                                             
     3  1  1.50       -60.9648   6.0000                                                             
     3  2  2.50        -4.2382   8.0000                                                             
     4  0  0.50        -4.3746   1.0000                                                             
     4  3  2.50        -1.3606   0.0000                                                             
   Description                                                                                      
     l       E           TYP  RCUT    TYP  RCUT                                                     
     1    -60.9647990     23  2.000                                                                 
     1     -5.4423304     23  2.000                                                                 
     2     -4.2382362     23  2.300                                                                 
     2     -5.5988188     23  2.300                                                                 
     0     -4.3745797     23  2.300                                                                 
     0      5.7660125     23  2.300                                                                 
     3     -1.3605826     23  2.300                                                                 
  local pseudopotential read in
  partial core-charges read in
  partial kinetic energy density read in
  atomic valenz-charges read in
  non local Contribution for L=           1  read in
    real space projection operators read in
  non local Contribution for L=           1  read in
    real space projection operators read in
  non local Contribution for L=           2  read in
    real space projection operators read in
  non local Contribution for L=           2  read in
    real space projection operators read in
  non local Contribution for L=           0  read in
    real space projection operators read in
  non local Contribution for L=           0  read in
    real space projection operators read in
    PAW grid and wavefunctions read in
 
   number of l-projection  operators is LMAX  =           6
   number of lm-projection operators is LMMAX =          18
 
 POTCAR:       PAW_PBE Sn 08Apr2002               
   VRHFIN =Sn: s2p2                                                                                 
   LEXCH  = PE                                                                                      
   EATOM  =    94.0860 eV,    6.9151 Ry                                                             
                                                                                                    
   TITEL  = PAW_PBE Sn 08Apr2002                                                                    
   LULTRA =        F    use ultrasoft PP ?                                                          
   IUNSCR =        1    unscreen: 0-lin 1-nonlin 2-no                                               
   RPACOR =    2.000    partial core radius                                                         
   POMASS =  118.710; ZVAL   =    4.000    mass and valenz                                          
   RCORE  =    3.000    outmost cutoff radius                                                       
   RWIGS  =    2.960; RWIGS  =    1.566    wigner-seitz radius (au A)                               
   ENMAX  =  103.236; ENMIN  =   77.427 eV                                                          
   ICORE  =        3    local potential                                                             
   LCOR   =        T    correct aug charges                                                         
   LPAW   =        T    paw PP                                                                      
   EAUG   =  263.585                                                                                
   DEXC   =    0.000                                                                                
   RMAX   =    3.078    core radius for proj-oper                                                   
   RAUG   =    1.300    factor for augmentation sphere                                              
   RDEP   =    3.022    radius for radial grids                                                     
   RDEPT  =    2.655    core radius for aug-charge                                                  
                                                                                                    
   Atomic configuration                                                                             
   13 entries                                                                                       
     n  l   j            E        occ.                                                              
     1  0  0.50    -29007.2859   2.0000                                                             
     2  0  0.50     -4378.8056   2.0000                                                             
     2  1  1.50     -3930.4293   6.0000                                                             
     3  0  0.50      -845.0264   2.0000                                                             
     3  1  1.50      -698.5725   6.0000                                                             
     3  2  2.50      -473.2839  10.0000                                                             
     4  0  0.50      -133.9036   2.0000                                                             
     4  1  1.50       -89.6752   6.0000                                                             
     4  2  2.50       -25.8375  10.0000                                                             
     5  0  0.50       -10.5484   2.0000                                                             
     5  1  0.50        -3.6940   2.0000                                                             
     5  2  1.50        -1.3606   0.0000                                                             
     4  3  2.50        -4.0817   0.0000                                                             
   Description                                                                                      
     l       E           TYP  RCUT    TYP  RCUT                                                     
     0    -10.5483727     23  3.000                                                                 
     0     27.2116520     23  3.000                                                                 
     1     -3.6939829     23  3.000                                                                 
     1      1.9821976     23  3.000                                                                 
     2     -1.3605826     23  3.000                                                                 
     3     -2.7211652     23  3.000                                                                 
  local pseudopotential read in
  partial core-charges read in
  partial kinetic energy density read in
  atomic valenz-charges read in
  non local Contribution for L=           0  read in
    real space projection operators read in
  non local Contribution for L=           0  read in
    real space projection operators read in
  non local Contribution for L=           1  read in
    real space projection operators read in
  non local Contribution for L=           1  read in
    real space projection operators read in
  non local Contribution for L=           2  read in
    real space projection operators read in
    PAW grid and wavefunctions read in
 
   number of l-projection  operators is LMAX  =           5
   number of lm-projection operators is LMMAX =          13
 
 Optimization of the real space projectors (new method)

 maximal supplied QI-value         = 17.01
 optimisation between [QCUT,QGAM] = [ 11.40, 22.79] = [ 36.36,145.44] Ry 
 Optimized for a Real-space Cutoff    1.47 Angstroem

   l    n(q)    QCUT    max X(q) W(low)/X(q) W(high)/X(q)  e(spline) 
   1     10    11.395     4.267    0.90E-04    0.11E-03    0.18E-06
   1     10    11.395     5.750    0.14E-03    0.15E-03    0.25E-06
   2      9    11.395    53.656    0.13E-03    0.36E-04    0.15E-06
   2      9    11.395    49.521    0.14E-03    0.36E-04    0.15E-06
   0     10    11.395    31.246    0.58E-04    0.17E-05    0.98E-07
   0     10    11.395    12.201    0.41E-04    0.11E-05    0.82E-07
 Optimization of the real space projectors (new method)

 maximal supplied QI-value         = 16.25
 optimisation between [QCUT,QGAM] = [ 11.38, 22.75] = [ 36.24,144.96] Ry 
 Optimized for a Real-space Cutoff    1.47 Angstroem

   l    n(q)    QCUT    max X(q) W(low)/X(q) W(high)/X(q)  e(spline) 
   1     10    11.376     4.946    0.88E-04    0.16E-03    0.15E-06
   1     10    11.376     5.991    0.13E-03    0.24E-03    0.21E-06
   2      9    11.376    46.947    0.87E-04    0.91E-04    0.20E-06
   2      9    11.376    42.928    0.91E-04    0.94E-04    0.20E-06
   0     10    11.376    68.324    0.58E-04    0.21E-04    0.82E-07
   0     10    11.376    36.926    0.52E-04    0.19E-04    0.78E-07
 Optimization of the real space projectors (new method)

 maximal supplied QI-value         = 12.47
 optimisation between [QCUT,QGAM] = [ 11.35, 22.82] = [ 36.07,145.88] Ry 
 Optimized for a Real-space Cutoff    1.66 Angstroem

   l    n(q)    QCUT    max X(q) W(low)/X(q) W(high)/X(q)  e(spline) 
   0     11    11.350    14.688    0.21E-04    0.12E-04    0.45E-07
   0     11    11.350     7.308    0.36E-04    0.28E-04    0.12E-06
   1     11    11.350    45.102    0.58E-04    0.28E-04    0.33E-06
   1     11    11.350    30.691    0.55E-04    0.27E-04    0.31E-06
   2     10    11.350     7.156    0.77E-05    0.22E-04    0.47E-07
  PAW_PBE Fe_pv 02Aug2007               :
 energy of atom  1       EATOM=-2457.4239
 kinetic energy error for atom=    0.0069 (will be added to EATOM!!)
  PAW_PBE Co_pv 23Apr2009               :
 energy of atom  2       EATOM=-2948.1334
 kinetic energy error for atom=    0.0060 (will be added to EATOM!!)
     PAW_PBE Sn 08Apr2002               :
 energy of atom  3       EATOM=  -94.0860
 kinetic energy error for atom=    0.0000 (will be added to EATOM!!)
 
 
 POSCAR: Heusler tetragonal
  positions in direct lattice
  velocities in cartesian coordinates
 exchange correlation table for  LEXCH =        8
   RHO(1)=    0.500       N(1)  =     2000
   RHO(2)=  100.500       N(2)  =     4000
 


--------------------------------------------------------------------------------------------------------


 ion  position               nearest neighbor table
   1  0.500  0.000  0.500-   5 2.56   6 2.56   7 2.56   8 2.56  13 2.62  14 2.62  15 2.62  16 2.62

   2  0.500  0.000  0.000-   5 2.56   6 2.56   7 2.56   8 2.56  13 2.62  14 2.62  15 2.62  16 2.62

   3  0.000  0.000  0.500-  13 2.59  14 2.59  15 2.59  16 2.59   5 2.59   6 2.59   7 2.59   8 2.59

   4  0.500  0.500  0.000-  13 2.59  14 2.59  15 2.59  16 2.59   5 2.59   6 2.59   7 2.59   8 2.59

   5  0.255  0.245  0.750-   1 2.56   2 2.56   3 2.59   4 2.59  10 2.59  12 2.59  11 2.62   9 2.62

   6  0.255  0.755  0.250-   1 2.56   2 2.56   3 2.59   4 2.59  10 2.59  12 2.59  11 2.62   9 2.62

   7  0.745  0.245  0.250-   1 2.56   2 2.56   3 2.59   4 2.59  10 2.59  12 2.59  11 2.62   9 2.62

   8  0.745  0.755  0.750-   1 2.56   2 2.56   3 2.59   4 2.59  10 2.59  12 2.59  11 2.62   9 2.62

   9  0.000  0.500  0.500-  13 2.57  14 2.57  15 2.57  16 2.57   5 2.62   6 2.62   7 2.62   8 2.62

  10  0.000  0.000  0.000-  13 2.59  14 2.59  15 2.59  16 2.59   5 2.59   6 2.59   7 2.59   8 2.59

  11  0.000  0.500  0.000-  13 2.57  14 2.57  15 2.57  16 2.57   5 2.62   6 2.62   7 2.62   8 2.62

  12  0.500  0.500  0.500-  13 2.59  14 2.59  15 2.59  16 2.59   5 2.59   6 2.59   7 2.59   8 2.59

  13  0.246  0.254  0.250-   9 2.57  11 2.57   3 2.59  10 2.59   4 2.59  12 2.59   1 2.62   2 2.62

  14  0.754  0.254  0.750-   9 2.57  11 2.57   3 2.59  10 2.59   4 2.59  12 2.59   1 2.62   2 2.62

  15  0.246  0.746  0.750-   9 2.57  11 2.57   3 2.59  10 2.59   4 2.59  12 2.59   1 2.62   2 2.62

  16  0.754  0.746  0.250-   9 2.57  11 2.57   3 2.59  10 2.59   4 2.59  12 2.59   1 2.62   2 2.62

 
  LATTYP: Found a simple tetragonal cell.
 ALAT       =     5.9803323856
 C/A-ratio  =     1.0019677777
  
  Lattice vectors:
  
 A1 = (   5.9803323856,   0.0000000000,   0.0000000000)
 A2 = (   0.0000000000,   5.9803323856,   0.0000000000)
 A3 = (   0.0000000000,   0.0000000000,   5.9921003501)


Analysis of symmetry for initial positions (statically):
=====================================================================
 Subroutine PRICEL returns:
 Original cell was already a primitive cell.
 

 Routine SETGRP: Setting up the symmetry group for a 
 simple tetragonal supercell.


 Subroutine GETGRP returns: Found  8 space group operations
 (whereof  4 operations were pure point group operations)
 out of a pool of 16 trial point group operations.


The static configuration has the point symmetry D_2 .
 The point group associated with its full space group is D_4 .


Analysis of symmetry for dynamics (positions and initial velocities):
=====================================================================
 Subroutine PRICEL returns:
 Original cell was already a primitive cell.
 

 Routine SETGRP: Setting up the symmetry group for a 
 simple tetragonal supercell.


 Subroutine GETGRP returns: Found  8 space group operations
 (whereof  4 operations were pure point group operations)
 out of a pool of 16 trial point group operations.


The dynamic configuration has the point symmetry D_2 .
 The point group associated with its full space group is D_4 .


Analysis of structural, dynamic, and magnetic symmetry:
=====================================================================
 Subroutine PRICEL returns:
 Original cell was already a primitive cell.
 

 Routine SETGRP: Setting up the symmetry group for a 
 simple tetragonal supercell.


 Subroutine GETGRP returns: Found  8 space group operations
 (whereof  4 operations were pure point group operations)
 out of a pool of 16 trial point group operations.


The magnetic configuration has the point symmetry D_2 .
 The point group associated with its full space group is D_4 .


 Subroutine INISYM returns: Found  8 space group operations
 (whereof  4 operations are pure point group operations),
 and found     1 'primitive' translations


----------------------------------------------------------------------------------------

                                     Primitive cell                                     

  volume of cell :     214.3037

  direct lattice vectors                    reciprocal lattice vectors
     5.980332386  0.000000000  0.000000000     0.167214786  0.000000000  0.000000000
     0.000000000  5.980332386  0.000000000     0.000000000  0.167214786  0.000000000
     0.000000000  0.000000000  5.992100350     0.000000000  0.000000000  0.166886391

  length of vectors
     5.980332386  5.980332386  5.992100350     0.167214786  0.167214786  0.166886391

  position of ions in fractional coordinates (direct lattice)
     0.500000000  0.000000000  0.500000000
     0.500000000  0.000000000  0.000000000
     0.000000000  0.000000000  0.500000000
     0.500000000  0.500000000  0.000000000
     0.254676602  0.245323398  0.750000000
     0.254676602  0.754676602  0.250000000
     0.745323398  0.245323398  0.250000000
     0.745323398  0.754676602  0.750000000
     0.000000000  0.500000000  0.500000000
     0.000000000  0.000000000  0.000000000
     0.000000000  0.500000000  0.000000000
     0.500000000  0.500000000  0.500000000
     0.246257645  0.253742355  0.250000000
     0.753742355  0.253742355  0.750000000
     0.246257645  0.746257645  0.750000000
     0.753742355  0.746257645  0.250000000

  ion indices of the primitive-cell ions
   primitive index   ion index
                 1           1
                 2           2
                 3           3
                 4           4
                 5           5
                 6           6
                 7           7
                 8           8
                 9           9
                10          10
                11          11
                12          12
                13          13
                14          14
                15          15
                16          16

----------------------------------------------------------------------------------------

 
 
 KPOINTS: Ni7CoMn5CrSn2                           

Automatic generation of k-mesh.
Space group operators:
 irot       det(A)        alpha          n_x          n_y          n_z        tau_x        tau_y        tau_z
    1     1.000000     0.000001     1.000000     0.000000     0.000000     0.000000     0.000000     0.000000
    2     1.000000   180.000000     0.000000     0.000000     1.000000     0.000000     0.000000     0.000000
    3     1.000000   180.000000     0.000000     1.000000     0.000000     0.000000     0.000000     0.000000
    4     1.000000   180.000000     1.000000     0.000000     0.000000     0.000000     0.000000     0.000000
    5     1.000000    90.000000     0.000000     0.000000    -1.000000    -0.500000    -0.500000    -0.500000
    6     1.000000    90.000000     0.000000     0.000000     1.000000    -0.500000    -0.500000    -0.500000
    7     1.000000   180.000000     0.707107     0.707107     0.000000    -0.500000    -0.500000    -0.500000
    8     1.000000   180.000000     0.707107    -0.707107     0.000000    -0.500000    -0.500000    -0.500000
 
 Subroutine IBZKPT returns following result:
 ===========================================
 
 Found     40 irreducible k-points:
 
 Following reciprocal coordinates:
            Coordinates               Weight
  0.062500  0.062500  0.062500      8.000000
  0.187500  0.062500  0.062500     16.000000
  0.312500  0.062500  0.062500     16.000000
  0.437500  0.062500  0.062500     16.000000
  0.187500  0.187500  0.062500      8.000000
  0.312500  0.187500  0.062500     16.000000
  0.437500  0.187500  0.062500     16.000000
  0.312500  0.312500  0.062500      8.000000
  0.437500  0.312500  0.062500     16.000000
  0.437500  0.437500  0.062500      8.000000
  0.062500  0.062500  0.187500      8.000000
  0.187500  0.062500  0.187500     16.000000
  0.312500  0.062500  0.187500     16.000000
  0.437500  0.062500  0.187500     16.000000
  0.187500  0.187500  0.187500      8.000000
  0.312500  0.187500  0.187500     16.000000
  0.437500  0.187500  0.187500     16.000000
  0.312500  0.312500  0.187500      8.000000
  0.437500  0.312500  0.187500     16.000000
  0.437500  0.437500  0.187500      8.000000
  0.062500  0.062500  0.312500      8.000000
  0.187500  0.062500  0.312500     16.000000
  0.312500  0.062500  0.312500     16.000000
  0.437500  0.062500  0.312500     16.000000
  0.187500  0.187500  0.312500      8.000000
  0.312500  0.187500  0.312500     16.000000
  0.437500  0.187500  0.312500     16.000000
  0.312500  0.312500  0.312500      8.000000
  0.437500  0.312500  0.312500     16.000000
  0.437500  0.437500  0.312500      8.000000
  0.062500  0.062500  0.437500      8.000000
  0.187500  0.062500  0.437500     16.000000
  0.312500  0.062500  0.437500     16.000000
  0.437500  0.062500  0.437500     16.000000
  0.187500  0.187500  0.437500      8.000000
  0.312500  0.187500  0.437500     16.000000
  0.437500  0.187500  0.437500     16.000000
  0.312500  0.312500  0.437500      8.000000
  0.437500  0.312500  0.437500     16.000000
  0.437500  0.437500  0.437500      8.000000
 
 Following cartesian coordinates:
            Coordinates               Weight
  0.063228  0.063228  0.063104      8.000000
  0.189684  0.063228  0.063104     16.000000
  0.316140  0.063228  0.063104     16.000000
  0.442597  0.063228  0.063104     16.000000
  0.189684  0.189684  0.063104      8.000000
  0.316140  0.189684  0.063104     16.000000
  0.442597  0.189684  0.063104     16.000000
  0.316140  0.316140  0.063104      8.000000
  0.442597  0.316140  0.063104     16.000000
  0.442597  0.442597  0.063104      8.000000
  0.063228  0.063228  0.189312      8.000000
  0.189684  0.063228  0.189312     16.000000
  0.316140  0.063228  0.189312     16.000000
  0.442597  0.063228  0.189312     16.000000
  0.189684  0.189684  0.189312      8.000000
  0.316140  0.189684  0.189312     16.000000
  0.442597  0.189684  0.189312     16.000000
  0.316140  0.316140  0.189312      8.000000
  0.442597  0.316140  0.189312     16.000000
  0.442597  0.442597  0.189312      8.000000
  0.063228  0.063228  0.315520      8.000000
  0.189684  0.063228  0.315520     16.000000
  0.316140  0.063228  0.315520     16.000000
  0.442597  0.063228  0.315520     16.000000
  0.189684  0.189684  0.315520      8.000000
  0.316140  0.189684  0.315520     16.000000
  0.442597  0.189684  0.315520     16.000000
  0.316140  0.316140  0.315520      8.000000
  0.442597  0.316140  0.315520     16.000000
  0.442597  0.442597  0.315520      8.000000
  0.063228  0.063228  0.441727      8.000000
  0.189684  0.063228  0.441727     16.000000
  0.316140  0.063228  0.441727     16.000000
  0.442597  0.063228  0.441727     16.000000
  0.189684  0.189684  0.441727      8.000000
  0.316140  0.189684  0.441727     16.000000
  0.442597  0.189684  0.441727     16.000000
  0.316140  0.316140  0.441727      8.000000
  0.442597  0.316140  0.441727     16.000000
  0.442597  0.442597  0.441727      8.000000
 


--------------------------------------------------------------------------------------------------------




 Dimension of arrays:
   k-points           NKPTS =     40   k-points in BZ     NKDIM =     40   number of bands    NBANDS=    128
   number of dos      NEDOS =   1500   number of ions     NIONS =     16
   non local maximal  LDIM  =      6   non local SUM 2l+1 LMDIM =     18
   total plane-waves  NPLWV = 110592
   max r-space proj   IRMAX =   9928   max aug-charges    IRDMAX= 397546
   dimension x,y,z NGX =    48 NGY =   48 NGZ =   48
   dimension x,y,z NGXF=    96 NGYF=   96 NGZF=   96
   support grid    NGXF=   192 NGYF=  192 NGZF=  192
   ions per type =               8   4   4
   NGX,Y,Z   is equivalent  to a cutoff of  13.34, 13.34, 13.32 a.u.
   NGXF,Y,Z  is equivalent  to a cutoff of  26.69, 26.69, 26.63 a.u.

 SYSTEM =  NiCoMnGa                                
 POSCAR =  Heusler tetragonal                      

 Startparameter for this run:
   NWRITE =      2    write-flag & timer
   PREC   = accura    normal or accurate (medium, high low for compatibility)
   ISTART =      0    job   : 0-new  1-cont  2-samecut
   ICHARG =      2    charge: 1-file 2-atom 10-const
   ISPIN  =      2    spin polarized calculation?
   LNONCOLLINEAR =      F non collinear calculations
   LSORBIT =      F    spin-orbit coupling
   INIWAV =      1    electr: 0-lowe 1-rand  2-diag
   LASPH  =      F    aspherical Exc in radial PAW
   METAGGA=      F    non-selfconsistent MetaGGA calc.

 Electronic Relaxation 1
   ENCUT  =  500.0 eV  36.75 Ry    6.06 a.u.  10.90 10.90 10.92*2*pi/ulx,y,z
   ENINI  =  500.0     initial cutoff
   ENAUG  =  578.3 eV  augmentation charge cutoff
   NELM   =    160;   NELMIN=  2; NELMDL= -6     # of ELM steps 
   EDIFF  = 0.1E-05   stopping-criterion for ELM
   LREAL  =      T    real-space projection
   NLSPLINE    = F    spline interpolate recip. space projectors
   LCOMPAT=      F    compatible to vasp.4.4
   GGA_COMPAT  = T    GGA compatible to vasp.4.4-vasp.4.6
   LMAXPAW     = -100 max onsite density
   LMAXMIX     =    6 max onsite mixed and CHGCAR
   VOSKOWN=      0    Vosko Wilk Nusair interpolation
   ROPT   =   -0.00025  -0.00025  -0.00025
 Ionic relaxation
   EDIFFG = -.1E-02   stopping-criterion for IOM
   NSW    =      0    number of steps for IOM
   NBLOCK =      1;   KBLOCK =      1    inner block; outer block 
   IBRION =     -1    ionic relax: 0-MD 1-quasi-New 2-CG
   NFREE  =      1    steps in history (QN), initial steepest desc. (CG)
   ISIF   =      3    stress and relaxation
   IWAVPR =     10    prediction:  0-non 1-charg 2-wave 3-comb
   ISYM   =      2    0-nonsym 1-usesym 2-fastsym
   LCORR  =      T    Harris-Foulkes like correction to forces

   POTIM  = 0.0070    time-step for ionic-motion
   TEIN   =    0.0    initial temperature
   TEBEG  =    0.0;   TEEND  =   0.0 temperature during run
   SMASS  =  -3.00    Nose mass-parameter (am)
   estimated Nose-frequenzy (Omega)   =  0.10E-29 period in steps = 0.90E+48 mass=  -0.817E-27a.u.
   SCALEE = 1.0000    scale energy and forces
   NPACO  =    256;   APACO  = 16.0  distance and # of slots for P.C.
   PSTRESS=    0.0 pullay stress

  Mass of Ions in am
   POMASS =  55.85 58.93118.71
  Ionic Valenz
   ZVAL   =  14.00 15.00  4.00
  Atomic Wigner-Seitz radii
   RWIGS  =   1.16  1.16  1.16
  virtual crystal weights 
   VCA    =   1.00  1.00  1.00
   NELECT =     188.0000    total number of electrons
   NUPDOWN=      -1.0000    fix difference up-down

 DOS related values:
   EMIN   =  10.00;   EMAX   =-10.00  energy-range for DOS
   EFERMI =   0.00
   ISMEAR =     1;   SIGMA  =   0.10  broadening in eV -4-tet -1-fermi 0-gaus

 Electronic relaxation 2 (details)
   IALGO  =     38    algorithm
   LDIAG  =      T    sub-space diagonalisation (order eigenvalues)
   LSUBROT=      F    optimize rotation matrix (better conditioning)
   TURBO    =      0    0=normal 1=particle mesh
   IRESTART =      0    0=no restart 2=restart with 2 vectors
   NREBOOT  =      0    no. of reboots
   NMIN     =      0    reboot dimension
   EREF     =   0.00    reference energy to select bands
   IMIX   =      4    mixing-type and parameters
     AMIX     =   0.18;   BMIX     =  0.00
     AMIX_MAG =   0.26;   BMIX_MAG =  0.01
     AMIN     =   0.10
     WC   =   100.;   INIMIX=   1;  MIXPRE=   1;  MAXMIX= -45

 Intra band minimization:
   WEIMIN = 0.0000     energy-eigenvalue tresh-hold
   EBREAK =  0.20E-08  absolut break condition
   DEPER  =   0.30     relativ break condition  

   TIME   =   0.40     timestep for ELM

  volume/ion in A,a.u.               =      13.39        90.39
  Fermi-wavevector in a.u.,A,eV,Ry     =   1.567175  2.961532 33.416425  2.456038
  Thomas-Fermi vector in A             =   2.669394
 
 Write flags
   LWAVE        =      F    write WAVECAR
   LDOWNSAMPLE  =      F    k-point downsampling of WAVECAR
   LCHARG       =      T    write CHGCAR
   LVTOT        =      F    write LOCPOT, total local potential
   LVHAR        =      F    write LOCPOT, Hartree potential only
   LELF         =      F    write electronic localiz. function (ELF)
   LORBIT       =     10    0 simple, 1 ext, 2 COOP (PROOUT), +10 PAW based schemes


 Dipole corrections
   LMONO  =      F    monopole corrections only (constant potential shift)
   LDIPOL =      F    correct potential (dipole corrections)
   IDIPOL =      0    1-x, 2-y, 3-z, 4-all directions 
   EPSILON=  1.0000000 bulk dielectric constant

 Exchange correlation treatment:
   GGA     =    --    GGA type
   LEXCH   =     8    internal setting for exchange type
   VOSKOWN=      0    Vosko Wilk Nusair interpolation
   LHFCALC =     F    Hartree Fock is set to
   LHFONE  =     F    Hartree Fock one center treatment
   AEXX    =    0.0000 exact exchange contribution

 Linear response parameters
   LEPSILON=     F    determine dielectric tensor
   LRPA    =     F    only Hartree local field effects (RPA)
   LNABLA  =     F    use nabla operator in PAW spheres
   LVEL    =     F    velocity operator in full k-point grid
   LINTERFAST=   F  fast interpolation
   KINTER  =     0    interpolate to denser k-point grid
   CSHIFT  =0.1000    complex shift for real part using Kramers Kronig
   OMEGAMAX=  -1.0    maximum frequency
   DEG_THRESHOLD= 0.2000000E-02 threshold for treating states as degnerate
   RTIME   =   -0.100 relaxation time in fs
  (WPLASMAI=    0.000 imaginary part of plasma frequency in eV, 0.658/RTIME)
   DFIELD  = 0.0000000 0.0000000 0.0000000 field for delta impulse in time
 
 Orbital magnetization related:
   ORBITALMAG=     F  switch on orbital magnetization
   LCHIMAG   =     F  perturbation theory with respect to B field
   DQ        =  0.001000  dq finite difference perturbation B field
   LLRAUG    =     F  two centre corrections for induced B field



--------------------------------------------------------------------------------------------------------


 Static calculation
 charge density and potential will be updated during run
 spin polarized calculation
 Variant of blocked Davidson
 Davidson routine will perform the subspace rotation
 perform sub-space diagonalisation
    after iterative eigenvector-optimisation
 modified Broyden-mixing scheme, WC =      100.0
 initial mixing is a Kerker type mixing with AMIX =  0.1800 and BMIX =      0.0025
 Hartree-type preconditioning will be used
 using additional bands           34
 real space projection scheme for non local part
 use partial core corrections
 calculate Harris-corrections to forces 
   (improved forces if not selfconsistent)
 use gradient corrections 
 use of overlap-Matrix (Vanderbilt PP)
 Methfessel and Paxton  Order N= 1 SIGMA  =   0.10


--------------------------------------------------------------------------------------------------------


  energy-cutoff  :      500.00
  volume of cell :      214.30
      direct lattice vectors                 reciprocal lattice vectors
     5.980332386  0.000000000  0.000000000     0.167214786  0.000000000  0.000000000
     0.000000000  5.980332386  0.000000000     0.000000000  0.167214786  0.000000000
     0.000000000  0.000000000  5.992100350     0.000000000  0.000000000  0.166886391

  length of vectors
     5.980332386  5.980332386  5.992100350     0.167214786  0.167214786  0.166886391


 
 k-points in units of 2pi/SCALE and weight: Ni7CoMn5CrSn2                           
   0.06322809  0.06322809  0.06310392       0.016
   0.18968427  0.06322809  0.06310392       0.031
   0.31614045  0.06322809  0.06310392       0.031
   0.44259664  0.06322809  0.06310392       0.031
   0.18968427  0.18968427  0.06310392       0.016
   0.31614045  0.18968427  0.06310392       0.031
   0.44259664  0.18968427  0.06310392       0.031
   0.31614045  0.31614045  0.06310392       0.016
   0.44259664  0.31614045  0.06310392       0.031
   0.44259664  0.44259664  0.06310392       0.016
   0.06322809  0.06322809  0.18931175       0.016
   0.18968427  0.06322809  0.18931175       0.031
   0.31614045  0.06322809  0.18931175       0.031
   0.44259664  0.06322809  0.18931175       0.031
   0.18968427  0.18968427  0.18931175       0.016
   0.31614045  0.18968427  0.18931175       0.031
   0.44259664  0.18968427  0.18931175       0.031
   0.31614045  0.31614045  0.18931175       0.016
   0.44259664  0.31614045  0.18931175       0.031
   0.44259664  0.44259664  0.18931175       0.016
   0.06322809  0.06322809  0.31551958       0.016
   0.18968427  0.06322809  0.31551958       0.031
   0.31614045  0.06322809  0.31551958       0.031
   0.44259664  0.06322809  0.31551958       0.031
   0.18968427  0.18968427  0.31551958       0.016
   0.31614045  0.18968427  0.31551958       0.031
   0.44259664  0.18968427  0.31551958       0.031
   0.31614045  0.31614045  0.31551958       0.016
   0.44259664  0.31614045  0.31551958       0.031
   0.44259664  0.44259664  0.31551958       0.016
   0.06322809  0.06322809  0.44172742       0.016
   0.18968427  0.06322809  0.44172742       0.031
   0.31614045  0.06322809  0.44172742       0.031
   0.44259664  0.06322809  0.44172742       0.031
   0.18968427  0.18968427  0.44172742       0.016
   0.31614045  0.18968427  0.44172742       0.031
   0.44259664  0.18968427  0.44172742       0.031
   0.31614045  0.31614045  0.44172742       0.016
   0.44259664  0.31614045  0.44172742       0.031
   0.44259664  0.44259664  0.44172742       0.016
 
 k-points in reciprocal lattice and weights: Ni7CoMn5CrSn2                           
   0.06250000  0.06250000  0.06250000       0.016
   0.18750000  0.06250000  0.06250000       0.031
   0.31250000  0.06250000  0.06250000       0.031
   0.43750000  0.06250000  0.06250000       0.031
   0.18750000  0.18750000  0.06250000       0.016
   0.31250000  0.18750000  0.06250000       0.031
   0.43750000  0.18750000  0.06250000       0.031
   0.31250000  0.31250000  0.06250000       0.016
   0.43750000  0.31250000  0.06250000       0.031
   0.43750000  0.43750000  0.06250000       0.016
   0.06250000  0.06250000  0.18750000       0.016
   0.18750000  0.06250000  0.18750000       0.031
   0.31250000  0.06250000  0.18750000       0.031
   0.43750000  0.06250000  0.18750000       0.031
   0.18750000  0.18750000  0.18750000       0.016
   0.31250000  0.18750000  0.18750000       0.031
   0.43750000  0.18750000  0.18750000       0.031
   0.31250000  0.31250000  0.18750000       0.016
   0.43750000  0.31250000  0.18750000       0.031
   0.43750000  0.43750000  0.18750000       0.016
   0.06250000  0.06250000  0.31250000       0.016
   0.18750000  0.06250000  0.31250000       0.031
   0.31250000  0.06250000  0.31250000       0.031
   0.43750000  0.06250000  0.31250000       0.031
   0.18750000  0.18750000  0.31250000       0.016
   0.31250000  0.18750000  0.31250000       0.031
   0.43750000  0.18750000  0.31250000       0.031
   0.31250000  0.31250000  0.31250000       0.016
   0.43750000  0.31250000  0.31250000       0.031
   0.43750000  0.43750000  0.31250000       0.016
   0.06250000  0.06250000  0.43750000       0.016
   0.18750000  0.06250000  0.43750000       0.031
   0.31250000  0.06250000  0.43750000       0.031
   0.43750000  0.06250000  0.43750000       0.031
   0.18750000  0.18750000  0.43750000       0.016
   0.31250000  0.18750000  0.43750000       0.031
   0.43750000  0.18750000  0.43750000       0.031
   0.31250000  0.31250000  0.43750000       0.016
   0.43750000  0.31250000  0.43750000       0.031
   0.43750000  0.43750000  0.43750000       0.016
 
 position of ions in fractional coordinates (direct lattice) 
   0.50000000  0.00000000  0.50000000
   0.50000000  0.00000000  0.00000000
   0.00000000  0.00000000  0.50000000
   0.50000000  0.50000000  0.00000000
   0.25467660  0.24532340  0.75000000
   0.25467660  0.75467660  0.25000000
   0.74532340  0.24532340  0.25000000
   0.74532340  0.75467660  0.75000000
   0.00000000  0.50000000  0.50000000
   0.00000000  0.00000000  0.00000000
   0.00000000  0.50000000  0.00000000
   0.50000000  0.50000000  0.50000000
   0.24625764  0.25374236  0.25000000
   0.75374236  0.25374236  0.75000000
   0.24625764  0.74625764  0.75000000
   0.75374236  0.74625764  0.25000000
 
 position of ions in cartesian coordinates  (Angst):
   2.99016619  0.00000000  2.99605018
   2.99016619  0.00000000  0.00000000
   0.00000000  0.00000000  2.99605018
   2.99016619  2.99016619  0.00000000
   1.52305073  1.46711546  4.49407526
   1.52305073  4.51321692  1.49802509
   4.45728166  1.46711546  1.49802509
   4.45728166  4.51321692  4.49407526
   0.00000000  2.99016619  2.99605018
   0.00000000  0.00000000  0.00000000
   0.00000000  2.99016619  0.00000000
   2.99016619  2.99016619  2.99605018
   1.47270257  1.51746362  1.49802509
   4.50762982  1.51746362  4.49407526
   1.47270257  4.46286876  4.49407526
   4.50762982  4.46286876  1.49802509
 


--------------------------------------------------------------------------------------------------------


 k-point   1 :   0.0625 0.0625 0.0625  plane waves:    5449
 k-point   2 :   0.1875 0.0625 0.0625  plane waves:    5443
 k-point   3 :   0.3125 0.0625 0.0625  plane waves:    5436
 k-point   4 :   0.4375 0.0625 0.0625  plane waves:    5433
 k-point   5 :   0.1875 0.1875 0.0625  plane waves:    5425
 k-point   6 :   0.3125 0.1875 0.0625  plane waves:    5436
 k-point   7 :   0.4375 0.1875 0.0625  plane waves:    5433
 k-point   8 :   0.3125 0.3125 0.0625  plane waves:    5433
 k-point   9 :   0.4375 0.3125 0.0625  plane waves:    5437
 k-point  10 :   0.4375 0.4375 0.0625  plane waves:    5427
 k-point  11 :   0.0625 0.0625 0.1875  plane waves:    5443
 k-point  12 :   0.1875 0.0625 0.1875  plane waves:    5419
 k-point  13 :   0.3125 0.0625 0.1875  plane waves:    5437
 k-point  14 :   0.4375 0.0625 0.1875  plane waves:    5432
 k-point  15 :   0.1875 0.1875 0.1875  plane waves:    5434
 k-point  16 :   0.3125 0.1875 0.1875  plane waves:    5443
 k-point  17 :   0.4375 0.1875 0.1875  plane waves:    5442
 k-point  18 :   0.3125 0.3125 0.1875  plane waves:    5442
 k-point  19 :   0.4375 0.3125 0.1875  plane waves:    5444
 k-point  20 :   0.4375 0.4375 0.1875  plane waves:    5458
 k-point  21 :   0.0625 0.0625 0.3125  plane waves:    5441
 k-point  22 :   0.1875 0.0625 0.3125  plane waves:    5437
 k-point  23 :   0.3125 0.0625 0.3125  plane waves:    5431
 k-point  24 :   0.4375 0.0625 0.3125  plane waves:    5439
 k-point  25 :   0.1875 0.1875 0.3125  plane waves:    5447
 k-point  26 :   0.3125 0.1875 0.3125  plane waves:    5445
 k-point  27 :   0.4375 0.1875 0.3125  plane waves:    5446
 k-point  28 :   0.3125 0.3125 0.3125  plane waves:    5439
 k-point  29 :   0.4375 0.3125 0.3125  plane waves:    5458
 k-point  30 :   0.4375 0.4375 0.3125  plane waves:    5464
 k-point  31 :   0.0625 0.0625 0.4375  plane waves:    5429
 k-point  32 :   0.1875 0.0625 0.4375  plane waves:    5436
 k-point  33 :   0.3125 0.0625 0.4375  plane waves:    5439
 k-point  34 :   0.4375 0.0625 0.4375  plane waves:    5429
 k-point  35 :   0.1875 0.1875 0.4375  plane waves:    5442
 k-point  36 :   0.3125 0.1875 0.4375  plane waves:    5444
 k-point  37 :   0.4375 0.1875 0.4375  plane waves:    5455
 k-point  38 :   0.3125 0.3125 0.4375  plane waves:    5459
 k-point  39 :   0.4375 0.3125 0.4375  plane waves:    5463
 k-point  40 :   0.4375 0.4375 0.4375  plane waves:    5478

 maximum and minimum number of plane-waves per node :       563      530

 maximum number of plane-waves:      5478
 maximum index in each direction: 
   IXMAX=   10   IYMAX=   10   IZMAX=   10
   IXMIN=  -11   IYMIN=  -11   IZMIN=  -11


 real space projection operators:
  total allocation   :      15257.28 KBytes
  max/ min on nodes  :       1624.20       1337.58


 parallel 3D FFT for wavefunctions:
    minimum data exchange during FFTs selected (reduces bandwidth)
 parallel 3D FFT for charge:
    minimum data exchange during FFTs selected (reduces bandwidth)


 total amount of memory used by VASP MPI-rank0    54908. kBytes
=======================================================================

   base      :      30000. kBytes
   nonlr-proj:       4693. kBytes
   fftplans  :       4343. kBytes
   grid      :       3686. kBytes
   one-center:         62. kBytes
   wavefun   :      12124. kBytes
 
     INWAV:  cpu time    0.0000: real time    0.0000
 Broyden mixing: mesh for mixing (old mesh)
   NGX = 21   NGY = 21   NGZ = 21
  (NGX  = 96   NGY  = 96   NGZ  = 96)
  gives a total of   9261 points

 initial charge density was supplied:
 charge density of overlapping atoms calculated
 number of electron     188.0000000 magnetization      23.2000000
 keeping initial charge density in first step


--------------------------------------------------------------------------------------------------------


 Maximum index for non-local projection operator         1032
 Maximum index for augmentation-charges         5679 (set IRDMAX)


--------------------------------------------------------------------------------------------------------


 First call to EWALD:  gamma=   0.296
 Maximum number of real-space cells 3x 3x 3
 Maximum number of reciprocal cells 3x 3x 3

    FEWALD:  cpu time    0.0000: real time    0.0015


--------------------------------------- Iteration      1(   1)  ---------------------------------------


    POTLOK:  cpu time    0.1480: real time    0.1836
    SETDIJ:  cpu time    0.3440: real time    0.3453
     EDDAV:  cpu time   12.0208: real time   12.1138
       DOS:  cpu time    0.0120: real time    0.0111
    --------------------------------------------
      LOOP:  cpu time   12.5248: real time   12.6538

 eigenvalue-minimisations  : 20936
 total energy-change (2. order) : 0.2635723E+04  (-0.9382732E+04)
 number of electron     188.0000000 magnetization      23.2000000
 augmentation part      188.0000000 magnetization      23.2000000

 Free energy of the ion-electron system (eV)
  ---------------------------------------------------
  alpha Z        PSCENC =      1107.65000600
  Ewald energy   TEWEN  =    -20785.53776012
  -Hartree energ DENC   =     -9518.28057906
  -exchange      EXHF   =         0.00000000
  -V(xc)+E(xc)   XCENC  =       467.41232385
  PAW double counting   =     26140.62212847   -27156.40297129
  entropy T*S    EENTRO =         0.00038718
  eigenvalues    EBANDS =       552.06979632
  atomic energy  EATOM  =     31828.18944640
  Solvation  Ediel_sol  =         0.00000000
  ---------------------------------------------------
  free energy    TOTEN  =      2635.72277776 eV

  energy without entropy =     2635.72239058  energy(sigma->0) =     2635.72264870


--------------------------------------------------------------------------------------------------------




--------------------------------------- Iteration      1(   2)  ---------------------------------------


     EDDAV:  cpu time   11.6887: real time   11.7306
       DOS:  cpu time    0.0080: real time    0.0076
    --------------------------------------------
      LOOP:  cpu time   11.6967: real time   11.7382

 eigenvalue-minimisations  : 20480
 total energy-change (2. order) :-0.2399305E+04  (-0.2298561E+04)
 number of electron     188.0000000 magnetization      23.2000000
 augmentation part      188.0000000 magnetization      23.2000000

 Free energy of the ion-electron system (eV)
  ---------------------------------------------------
  alpha Z        PSCENC =      1107.65000600
  Ewald energy   TEWEN  =    -20785.53776012
  -Hartree energ DENC   =     -9518.28057906
  -exchange      EXHF   =         0.00000000
  -V(xc)+E(xc)   XCENC  =       467.41232385
  PAW double counting   =     26140.62212847   -27156.40297129
  entropy T*S    EENTRO =         0.00063341
  eigenvalues    EBANDS =     -1847.23565595
  atomic energy  EATOM  =     31828.18944640
  Solvation  Ediel_sol  =         0.00000000
  ---------------------------------------------------
  free energy    TOTEN  =       236.41757172 eV

  energy without entropy =      236.41693831  energy(sigma->0) =      236.41736058


--------------------------------------------------------------------------------------------------------




--------------------------------------- Iteration      1(   3)  ---------------------------------------


     EDDAV:  cpu time   11.8727: real time   11.9100
       DOS:  cpu time    0.0080: real time    0.0080
    --------------------------------------------
      LOOP:  cpu time   11.8807: real time   11.9180

 eigenvalue-minimisations  : 20896
 total energy-change (2. order) :-0.3361469E+03  (-0.2939233E+03)
 number of electron     188.0000000 magnetization      23.2000000
 augmentation part      188.0000000 magnetization      23.2000000

 Free energy of the ion-electron system (eV)
  ---------------------------------------------------
  alpha Z        PSCENC =      1107.65000600
  Ewald energy   TEWEN  =    -20785.53776012
  -Hartree energ DENC   =     -9518.28057906
  -exchange      EXHF   =         0.00000000
  -V(xc)+E(xc)   XCENC  =       467.41232385
  PAW double counting   =     26140.62212847   -27156.40297129
  entropy T*S    EENTRO =        -0.00074326
  eigenvalues    EBANDS =     -2183.38120366
  atomic energy  EATOM  =     31828.18944640
  Solvation  Ediel_sol  =         0.00000000
  ---------------------------------------------------
  free energy    TOTEN  =       -99.72935267 eV

  energy without entropy =      -99.72860940  energy(sigma->0) =      -99.72910491


--------------------------------------------------------------------------------------------------------




--------------------------------------- Iteration      1(   4)  ---------------------------------------


     EDDAV:  cpu time   12.5328: real time   12.5743
       DOS:  cpu time    0.0080: real time    0.0080
    --------------------------------------------
      LOOP:  cpu time   12.5408: real time   12.5824

 eigenvalue-minimisations  : 22384
 total energy-change (2. order) :-0.2097220E+02  (-0.2050971E+02)
 number of electron     188.0000000 magnetization      23.2000000
 augmentation part      188.0000000 magnetization      23.2000000

 Free energy of the ion-electron system (eV)
  ---------------------------------------------------
  alpha Z        PSCENC =      1107.65000600
  Ewald energy   TEWEN  =    -20785.53776012
  -Hartree energ DENC   =     -9518.28057906
  -exchange      EXHF   =         0.00000000
  -V(xc)+E(xc)   XCENC  =       467.41232385
  PAW double counting   =     26140.62212847   -27156.40297129
  entropy T*S    EENTRO =         0.00179550
  eigenvalues    EBANDS =     -2204.35594422
  atomic energy  EATOM  =     31828.18944640
  Solvation  Ediel_sol  =         0.00000000
  ---------------------------------------------------
  free energy    TOTEN  =      -120.70155447 eV

  energy without entropy =     -120.70334997  energy(sigma->0) =     -120.70215297


--------------------------------------------------------------------------------------------------------




--------------------------------------- Iteration      1(   5)  ---------------------------------------


     EDDAV:  cpu time   12.5528: real time   12.5972
       DOS:  cpu time    0.0080: real time    0.0082
    --------------------------------------------
      LOOP:  cpu time   12.5608: real time   12.6054

 eigenvalue-minimisations  : 22464
 total energy-change (2. order) :-0.3448348E+00  (-0.3441597E+00)
 number of electron     188.0000000 magnetization      23.2000000
 augmentation part      188.0000000 magnetization      23.2000000

 Free energy of the ion-electron system (eV)
  ---------------------------------------------------
  alpha Z        PSCENC =      1107.65000600
  Ewald energy   TEWEN  =    -20785.53776012
  -Hartree energ DENC   =     -9518.28057906
  -exchange      EXHF   =         0.00000000
  -V(xc)+E(xc)   XCENC  =       467.41232385
  PAW double counting   =     26140.62212847   -27156.40297129
  entropy T*S    EENTRO =         0.00173553
  eigenvalues    EBANDS =     -2204.70071905
  atomic energy  EATOM  =     31828.18944640
  Solvation  Ediel_sol  =         0.00000000
  ---------------------------------------------------
  free energy    TOTEN  =      -121.04638926 eV

  energy without entropy =     -121.04812480  energy(sigma->0) =     -121.04696777


--------------------------------------------------------------------------------------------------------




--------------------------------------- Iteration      1(   6)  ---------------------------------------


     EDDAV:  cpu time   12.3168: real time   12.3578
       DOS:  cpu time    0.0080: real time    0.0079
    CHARGE:  cpu time    0.5120: real time    0.5126
    MIXING:  cpu time    0.0040: real time    0.0051
    --------------------------------------------
      LOOP:  cpu time   12.8408: real time   12.8835

 eigenvalue-minimisations  : 21968
 total energy-change (2. order) :-0.8648018E-02  (-0.8647710E-02)
 number of electron     188.0000008 magnetization      22.9079209
 augmentation part       96.4138906 magnetization      16.9848499

 Broyden mixing:
  rms(total) = 0.36499E+01    rms(broyden)= 0.36481E+01
  rms(prec ) = 0.54783E+01
  weight for this iteration     100.00

 Free energy of the ion-electron system (eV)
  ---------------------------------------------------
  alpha Z        PSCENC =      1107.65000600
  Ewald energy   TEWEN  =    -20785.53776012
  -Hartree energ DENC   =     -9518.28057906
  -exchange      EXHF   =         0.00000000
  -V(xc)+E(xc)   XCENC  =       467.41232385
  PAW double counting   =     26140.62212847   -27156.40297129
  entropy T*S    EENTRO =         0.00173503
  eigenvalues    EBANDS =     -2204.70936656
  atomic energy  EATOM  =     31828.18944640
  Solvation  Ediel_sol  =         0.00000000
  ---------------------------------------------------
  free energy    TOTEN  =      -121.05503728 eV

  energy without entropy =     -121.05677231  energy(sigma->0) =     -121.05561562


--------------------------------------------------------------------------------------------------------




--------------------------------------- Iteration      1(   7)  ---------------------------------------


    POTLOK:  cpu time    0.0800: real time    0.0780
    SETDIJ:  cpu time    0.2440: real time    0.2456
     EDDAV:  cpu time   12.3368: real time   12.3794
       DOS:  cpu time    0.0120: real time    0.0082
    CHARGE:  cpu time    0.5000: real time    0.5050
    MIXING:  cpu time    0.0040: real time    0.0038
    --------------------------------------------
      LOOP:  cpu time   13.1768: real time   13.2200

 eigenvalue-minimisations  : 21936
 total energy-change (2. order) : 0.9215633E+01  (-0.3903623E+01)
 number of electron     188.0000008 magnetization      22.6689735
 augmentation part      102.4833963 magnetization      17.4036736

 Broyden mixing:
  rms(total) = 0.33148E+01    rms(broyden)= 0.33145E+01
  rms(prec ) = 0.56568E+01
  weight for this iteration     100.00

 eigenvalues of (default mixing * dielectric matrix)
  average eigenvalue GAMMA=   0.5430
  0.5430

 Free energy of the ion-electron system (eV)
  ---------------------------------------------------
  alpha Z        PSCENC =      1107.65000600
  Ewald energy   TEWEN  =    -20785.53776012
  -Hartree energ DENC   =     -9248.17440161
  -exchange      EXHF   =         0.00000000
  -V(xc)+E(xc)   XCENC  =       457.23064061
  PAW double counting   =     26362.33876813   -27352.87070586
  entropy T*S    EENTRO =        -0.00350589
  eigenvalues    EBANDS =     -2480.66189198
  atomic energy  EATOM  =     31828.18944640
  Solvation  Ediel_sol  =         0.00000000
  ---------------------------------------------------
  free energy    TOTEN  =      -111.83940433 eV

  energy without entropy =     -111.83589844  energy(sigma->0) =     -111.83823570


--------------------------------------------------------------------------------------------------------




--------------------------------------- Iteration      1(   8)  ---------------------------------------


    POTLOK:  cpu time    0.0800: real time    0.0774
    SETDIJ:  cpu time    0.2440: real time    0.2464
     EDDAV:  cpu time   12.5168: real time   12.5602
       DOS:  cpu time    0.0080: real time    0.0078
    CHARGE:  cpu time    0.5200: real time    0.5196
    MIXING:  cpu time    0.0040: real time    0.0028
    --------------------------------------------
      LOOP:  cpu time   13.3728: real time   13.4142

 eigenvalue-minimisations  : 22240
 total energy-change (2. order) :-0.2179430E+01  (-0.2731059E+01)
 number of electron     188.0000008 magnetization      22.1408678
 augmentation part      103.1059980 magnetization      17.3395085

 Broyden mixing:
  rms(total) = 0.34735E+01    rms(broyden)= 0.34730E+01
  rms(prec ) = 0.59672E+01
  weight for this iteration     100.00

 eigenvalues of (default mixing * dielectric matrix)
  average eigenvalue GAMMA=   0.7274
  1.2227  0.2320

 Free energy of the ion-electron system (eV)
  ---------------------------------------------------
  alpha Z        PSCENC =      1107.65000600
  Ewald energy   TEWEN  =    -20785.53776012
  -Hartree energ DENC   =     -9230.67936565
  -exchange      EXHF   =         0.00000000
  -V(xc)+E(xc)   XCENC  =       456.46621201
  PAW double counting   =     26573.80663594   -27565.52494940
  entropy T*S    EENTRO =         0.00152407
  eigenvalues    EBANDS =     -2498.39058384
  atomic energy  EATOM  =     31828.18944640
  Solvation  Ediel_sol  =         0.00000000
  ---------------------------------------------------
  free energy    TOTEN  =      -114.01883459 eV

  energy without entropy =     -114.02035866  energy(sigma->0) =     -114.01934261


--------------------------------------------------------------------------------------------------------




--------------------------------------- Iteration      1(   9)  ---------------------------------------


    POTLOK:  cpu time    0.0760: real time    0.0768
    SETDIJ:  cpu time    0.2480: real time    0.2503
     EDDAV:  cpu time   12.4888: real time   12.5319
       DOS:  cpu time    0.0080: real time    0.0080
    CHARGE:  cpu time    0.5080: real time    0.5087
    MIXING:  cpu time    0.0040: real time    0.0042
    --------------------------------------------
      LOOP:  cpu time   13.3328: real time   13.3799

 eigenvalue-minimisations  : 22264
 total energy-change (2. order) : 0.4420308E+01  (-0.4137227E+00)
 number of electron     188.0000008 magnetization      22.0707801
 augmentation part      103.6345704 magnetization      16.9517419

 Broyden mixing:
  rms(total) = 0.17890E+01    rms(broyden)= 0.17886E+01
  rms(prec ) = 0.26851E+01
  weight for this iteration     100.00

 eigenvalues of (default mixing * dielectric matrix)
  average eigenvalue GAMMA=   0.6354
  1.3449  0.2807  0.2807

 Free energy of the ion-electron system (eV)
  ---------------------------------------------------
  alpha Z        PSCENC =      1107.65000600
  Ewald energy   TEWEN  =    -20785.53776012
  -Hartree energ DENC   =     -9200.92354083
  -exchange      EXHF   =         0.00000000
  -V(xc)+E(xc)   XCENC  =       455.46890749
  PAW double counting   =     26970.18098181   -27964.75542603
  entropy T*S    EENTRO =        -0.00029552
  eigenvalues    EBANDS =     -2519.87084589
  atomic energy  EATOM  =     31828.18944640
  Solvation  Ediel_sol  =         0.00000000
  ---------------------------------------------------
  free energy    TOTEN  =      -109.59852668 eV

  energy without entropy =     -109.59823116  energy(sigma->0) =     -109.59842817


--------------------------------------------------------------------------------------------------------




--------------------------------------- Iteration      1(  10)  ---------------------------------------


    POTLOK:  cpu time    0.0800: real time    0.0783
    SETDIJ:  cpu time    0.2480: real time    0.2486
     EDDAV:  cpu time   12.8448: real time   12.8891
       DOS:  cpu time    0.0080: real time    0.0080
    CHARGE:  cpu time    0.5040: real time    0.5052
    MIXING:  cpu time    0.0040: real time    0.0049
    --------------------------------------------
      LOOP:  cpu time   13.6889: real time   13.7342

 eigenvalue-minimisations  : 23104
 total energy-change (2. order) : 0.5262534E+00  (-0.2260024E+00)
 number of electron     188.0000008 magnetization      22.0046834
 augmentation part      103.3745068 magnetization      17.0509937

 Broyden mixing:
  rms(total) = 0.14646E+01    rms(broyden)= 0.14644E+01
  rms(prec ) = 0.19067E+01
  weight for this iteration     100.00

 eigenvalues of (default mixing * dielectric matrix)
  average eigenvalue GAMMA=   0.6560
  1.5592  0.5492  0.3140  0.2016

 Free energy of the ion-electron system (eV)
  ---------------------------------------------------
  alpha Z        PSCENC =      1107.65000600
  Ewald energy   TEWEN  =    -20785.53776012
  -Hartree energ DENC   =     -9198.85400341
  -exchange      EXHF   =         0.00000000
  -V(xc)+E(xc)   XCENC  =       455.48907773
  PAW double counting   =     27111.91622084   -28109.69334146
  entropy T*S    EENTRO =        -0.00070071
  eigenvalues    EBANDS =     -2518.23121857
  atomic energy  EATOM  =     31828.18944640
  Solvation  Ediel_sol  =         0.00000000
  ---------------------------------------------------
  free energy    TOTEN  =      -109.07227329 eV

  energy without entropy =     -109.07157258  energy(sigma->0) =     -109.07203972


--------------------------------------------------------------------------------------------------------




--------------------------------------- Iteration      1(  11)  ---------------------------------------


    POTLOK:  cpu time    0.0800: real time    0.0776
    SETDIJ:  cpu time    0.2480: real time    0.2498
     EDDAV:  cpu time   12.7688: real time   12.8108
       DOS:  cpu time    0.0080: real time    0.0081
    CHARGE:  cpu time    0.5120: real time    0.5168
    MIXING:  cpu time    0.0040: real time    0.0044
    --------------------------------------------
      LOOP:  cpu time   13.6249: real time   13.6674

 eigenvalue-minimisations  : 22896
 total energy-change (2. order) : 0.3988572E-01  (-0.4822511E-01)
 number of electron     188.0000008 magnetization      21.9302595
 augmentation part      103.3929118 magnetization      17.0517003

 Broyden mixing:
  rms(total) = 0.11650E+01    rms(broyden)= 0.11650E+01
  rms(prec ) = 0.14225E+01
  weight for this iteration     100.00

 eigenvalues of (default mixing * dielectric matrix)
  average eigenvalue GAMMA=   0.8404
  2.2441  0.7422  0.7422  0.2642  0.2093

 Free energy of the ion-electron system (eV)
  ---------------------------------------------------
  alpha Z        PSCENC =      1107.65000600
  Ewald energy   TEWEN  =    -20785.53776012
  -Hartree energ DENC   =     -9190.10785585
  -exchange      EXHF   =         0.00000000
  -V(xc)+E(xc)   XCENC  =       455.42046128
  PAW double counting   =     27439.14858698   -28441.79592763
  entropy T*S    EENTRO =         0.00201881
  eigenvalues    EBANDS =     -2522.00136345
  atomic energy  EATOM  =     31828.18944640
  Solvation  Ediel_sol  =         0.00000000
  ---------------------------------------------------
  free energy    TOTEN  =      -109.03238757 eV

  energy without entropy =     -109.03440638  energy(sigma->0) =     -109.03306050


--------------------------------------------------------------------------------------------------------




--------------------------------------- Iteration      1(  12)  ---------------------------------------


    POTLOK:  cpu time    0.0760: real time    0.0761
    SETDIJ:  cpu time    0.2600: real time    0.2577
     EDDAV:  cpu time   12.8928: real time   12.9364
       DOS:  cpu time    0.0080: real time    0.0081
    CHARGE:  cpu time    0.5080: real time    0.5094
    MIXING:  cpu time    0.0040: real time    0.0030
    --------------------------------------------
      LOOP:  cpu time   13.7449: real time   13.7906

 eigenvalue-minimisations  : 23216
 total energy-change (2. order) :-0.1160870E+00  (-0.6430657E-01)
 number of electron     188.0000008 magnetization      21.9740385
 augmentation part      103.5076787 magnetization      17.0060029

 Broyden mixing:
  rms(total) = 0.89467E+00    rms(broyden)= 0.89458E+00
  rms(prec ) = 0.12087E+01
  weight for this iteration     100.00

 eigenvalues of (default mixing * dielectric matrix)
  average eigenvalue GAMMA=   1.3711
  5.3168  1.1886  0.9907  0.2921  0.2371  0.2010

 Free energy of the ion-electron system (eV)
  ---------------------------------------------------
  alpha Z        PSCENC =      1107.65000600
  Ewald energy   TEWEN  =    -20785.53776012
  -Hartree energ DENC   =     -9177.21907896
  -exchange      EXHF   =         0.00000000
  -V(xc)+E(xc)   XCENC  =       455.37741395
  PAW double counting   =     27947.51921799   -28956.97044672
  entropy T*S    EENTRO =        -0.00339574
  eigenvalues    EBANDS =     -2528.15387739
  atomic energy  EATOM  =     31828.18944640
  Solvation  Ediel_sol  =         0.00000000
  ---------------------------------------------------
  free energy    TOTEN  =      -109.14847459 eV

  energy without entropy =     -109.14507885  energy(sigma->0) =     -109.14734267


--------------------------------------------------------------------------------------------------------




--------------------------------------- Iteration      1(  13)  ---------------------------------------


    POTLOK:  cpu time    0.0760: real time    0.0773
    SETDIJ:  cpu time    0.2560: real time    0.2564
     EDDAV:  cpu time   12.6808: real time   12.7224
       DOS:  cpu time    0.0080: real time    0.0082
    CHARGE:  cpu time    0.5040: real time    0.5084
    MIXING:  cpu time    0.0080: real time    0.0053
    --------------------------------------------
      LOOP:  cpu time   13.5328: real time   13.5781

 eigenvalue-minimisations  : 22720
 total energy-change (2. order) :-0.6114163E-01  (-0.9172919E-01)
 number of electron     188.0000008 magnetization      22.0081038
 augmentation part      103.3446002 magnetization      17.4110256

 Broyden mixing:
  rms(total) = 0.35775E+00    rms(broyden)= 0.35755E+00
  rms(prec ) = 0.57869E+00
  weight for this iteration     100.00

 eigenvalues of (default mixing * dielectric matrix)
  average eigenvalue GAMMA=   1.2549
  5.2162  1.1922  1.0687  0.5861  0.2876  0.2318  0.2017

 Free energy of the ion-electron system (eV)
  ---------------------------------------------------
  alpha Z        PSCENC =      1107.65000600
  Ewald energy   TEWEN  =    -20785.53776012
  -Hartree energ DENC   =     -9160.94902904
  -exchange      EXHF   =         0.00000000
  -V(xc)+E(xc)   XCENC  =       455.86385533
  PAW double counting   =     29035.69442901   -30061.52271021
  entropy T*S    EENTRO =         0.00028518
  eigenvalues    EBANDS =     -2528.59813876
  atomic energy  EATOM  =     31828.18944640
  Solvation  Ediel_sol  =         0.00000000
  ---------------------------------------------------
  free energy    TOTEN  =      -109.20961622 eV

  energy without entropy =     -109.20990139  energy(sigma->0) =     -109.20971128


--------------------------------------------------------------------------------------------------------




--------------------------------------- Iteration      1(  14)  ---------------------------------------


    POTLOK:  cpu time    0.0760: real time    0.0766
    SETDIJ:  cpu time    0.2480: real time    0.2500
     EDDAV:  cpu time   12.3608: real time   12.4011
       DOS:  cpu time    0.0080: real time    0.0080
    CHARGE:  cpu time    0.5080: real time    0.5121
    MIXING:  cpu time    0.0080: real time    0.0048
    --------------------------------------------
      LOOP:  cpu time   13.2088: real time   13.2526

 eigenvalue-minimisations  : 21976
 total energy-change (2. order) : 0.1314993E-01  (-0.1266118E-01)
 number of electron     188.0000008 magnetization      22.1310522
 augmentation part      103.3573785 magnetization      17.5328132

 Broyden mixing:
  rms(total) = 0.28506E+00    rms(broyden)= 0.28504E+00
  rms(prec ) = 0.42965E+00
  weight for this iteration     100.00

 eigenvalues of (default mixing * dielectric matrix)
  average eigenvalue GAMMA=   1.2165
  5.0416  1.6947  1.1740  0.8511  0.2907  0.2016  0.2391  0.2391

 Free energy of the ion-electron system (eV)
  ---------------------------------------------------
  alpha Z        PSCENC =      1107.65000600
  Ewald energy   TEWEN  =    -20785.53776012
  -Hartree energ DENC   =     -9160.70498819
  -exchange      EXHF   =         0.00000000
  -V(xc)+E(xc)   XCENC  =       455.89154229
  PAW double counting   =     29051.81395308   -30077.97802316
  entropy T*S    EENTRO =        -0.00063391
  eigenvalues    EBANDS =     -2528.52000868
  atomic energy  EATOM  =     31828.18944640
  Solvation  Ediel_sol  =         0.00000000
  ---------------------------------------------------
  free energy    TOTEN  =      -109.19646629 eV

  energy without entropy =     -109.19583238  energy(sigma->0) =     -109.19625499


--------------------------------------------------------------------------------------------------------




--------------------------------------- Iteration      1(  15)  ---------------------------------------


    POTLOK:  cpu time    0.0760: real time    0.0770
    SETDIJ:  cpu time    0.2480: real time    0.2518
     EDDAV:  cpu time   12.2328: real time   12.2699
       DOS:  cpu time    0.0080: real time    0.0078
    CHARGE:  cpu time    0.5160: real time    0.5193
    MIXING:  cpu time    0.0040: real time    0.0044
    --------------------------------------------
      LOOP:  cpu time   13.0848: real time   13.1302

 eigenvalue-minimisations  : 21640
 total energy-change (2. order) : 0.2029239E-01  (-0.4626162E-02)
 number of electron     188.0000008 magnetization      22.3518976
 augmentation part      103.3852017 magnetization      17.7333850

 Broyden mixing:
  rms(total) = 0.17128E+00    rms(broyden)= 0.17127E+00
  rms(prec ) = 0.20917E+00
  weight for this iteration     100.00

 eigenvalues of (default mixing * dielectric matrix)
  average eigenvalue GAMMA=   1.5203
  5.5120  4.1572  1.1976  0.9223  0.9223  0.2886  0.2016  0.2326  0.2485

 Free energy of the ion-electron system (eV)
  ---------------------------------------------------
  alpha Z        PSCENC =      1107.65000600
  Ewald energy   TEWEN  =    -20785.53776012
  -Hartree energ DENC   =     -9160.84974444
  -exchange      EXHF   =         0.00000000
  -V(xc)+E(xc)   XCENC  =       455.99088259
  PAW double counting   =     29054.79094727   -30081.39807577
  entropy T*S    EENTRO =        -0.00093206
  eigenvalues    EBANDS =     -2528.01094376
  atomic energy  EATOM  =     31828.18944640
  Solvation  Ediel_sol  =         0.00000000
  ---------------------------------------------------
  free energy    TOTEN  =      -109.17617390 eV

  energy without entropy =     -109.17524184  energy(sigma->0) =     -109.17586321


--------------------------------------------------------------------------------------------------------




--------------------------------------- Iteration      1(  16)  ---------------------------------------


    POTLOK:  cpu time    0.0760: real time    0.0783
    SETDIJ:  cpu time    0.2520: real time    0.2500
     EDDAV:  cpu time   12.6688: real time   12.7125
       DOS:  cpu time    0.0080: real time    0.0079
    CHARGE:  cpu time    0.5080: real time    0.5080
    MIXING:  cpu time    0.0040: real time    0.0033
    --------------------------------------------
      LOOP:  cpu time   13.5168: real time   13.5600

 eigenvalue-minimisations  : 22672
 total energy-change (2. order) :-0.2037896E-02  (-0.3460906E-02)
 number of electron     188.0000008 magnetization      22.3763201
 augmentation part      103.3525019 magnetization      17.7919585

 Broyden mixing:
  rms(total) = 0.57949E-01    rms(broyden)= 0.57942E-01
  rms(prec ) = 0.79389E-01
  weight for this iteration     100.00

 eigenvalues of (default mixing * dielectric matrix)
  average eigenvalue GAMMA=   1.5736
  6.1080  4.1568  1.5307  1.0432  1.0432  0.8826  0.2887  0.2016  0.2328  0.2480

 Free energy of the ion-electron system (eV)
  ---------------------------------------------------
  alpha Z        PSCENC =      1107.65000600
  Ewald energy   TEWEN  =    -20785.53776012
  -Hartree energ DENC   =     -9159.53673743
  -exchange      EXHF   =         0.00000000
  -V(xc)+E(xc)   XCENC  =       456.24271898
  PAW double counting   =     29184.60606457   -30213.98395530
  entropy T*S    EENTRO =        -0.00120509
  eigenvalues    EBANDS =     -2526.80678981
  atomic energy  EATOM  =     31828.18944640
  Solvation  Ediel_sol  =         0.00000000
  ---------------------------------------------------
  free energy    TOTEN  =      -109.17821179 eV

  energy without entropy =     -109.17700670  energy(sigma->0) =     -109.17781009


--------------------------------------------------------------------------------------------------------




--------------------------------------- Iteration      1(  17)  ---------------------------------------


    POTLOK:  cpu time    0.0760: real time    0.0773
    SETDIJ:  cpu time    0.2480: real time    0.2497
     EDDAV:  cpu time   12.5928: real time   12.6336
       DOS:  cpu time    0.0080: real time    0.0080
    CHARGE:  cpu time    0.5000: real time    0.5041
    MIXING:  cpu time    0.0080: real time    0.0048
    --------------------------------------------
      LOOP:  cpu time   13.4328: real time   13.4775

 eigenvalue-minimisations  : 22504
 total energy-change (2. order) : 0.4700065E-03  (-0.4718831E-03)
 number of electron     188.0000008 magnetization      22.4000348
 augmentation part      103.3733204 magnetization      17.8201604

 Broyden mixing:
  rms(total) = 0.31492E-01    rms(broyden)= 0.31484E-01
  rms(prec ) = 0.38209E-01
  weight for this iteration     100.00

 eigenvalues of (default mixing * dielectric matrix)
  average eigenvalue GAMMA=   1.6816
  6.0006  4.2450  3.2150  1.2334  0.9854  0.9854  0.8618  0.2887  0.2016  0.2328
  0.2480

 Free energy of the ion-electron system (eV)
  ---------------------------------------------------
  alpha Z        PSCENC =      1107.65000600
  Ewald energy   TEWEN  =    -20785.53776012
  -Hartree energ DENC   =     -9157.84372387
  -exchange      EXHF   =         0.00000000
  -V(xc)+E(xc)   XCENC  =       456.22236218
  PAW double counting   =     29218.47057342   -30248.13917613
  entropy T*S    EENTRO =        -0.00136483
  eigenvalues    EBANDS =     -2528.18810482
  atomic energy  EATOM  =     31828.18944640
  Solvation  Ediel_sol  =         0.00000000
  ---------------------------------------------------
  free energy    TOTEN  =      -109.17774178 eV

  energy without entropy =     -109.17637695  energy(sigma->0) =     -109.17728684


--------------------------------------------------------------------------------------------------------




--------------------------------------- Iteration      1(  18)  ---------------------------------------


    POTLOK:  cpu time    0.0760: real time    0.0773
    SETDIJ:  cpu time    0.2480: real time    0.2489
     EDDAV:  cpu time   12.4568: real time   12.4975
       DOS:  cpu time    0.0080: real time    0.0079
    CHARGE:  cpu time    0.5160: real time    0.5188
    MIXING:  cpu time    0.0040: real time    0.0037
    --------------------------------------------
      LOOP:  cpu time   13.3088: real time   13.3540

 eigenvalue-minimisations  : 22160
 total energy-change (2. order) : 0.5054691E-05  (-0.1212389E-03)
 number of electron     188.0000008 magnetization      22.4164967
 augmentation part      103.3676023 magnetization      17.8323426

 Broyden mixing:
  rms(total) = 0.18390E-01    rms(broyden)= 0.18388E-01
  rms(prec ) = 0.22900E-01
  weight for this iteration     100.00

 eigenvalues of (default mixing * dielectric matrix)
  average eigenvalue GAMMA=   1.7383
  5.7713  4.9247  3.6301  1.5407  1.1797  0.9863  0.9863  0.8691  0.2887  0.2016
  0.2328  0.2480

 Free energy of the ion-electron system (eV)
  ---------------------------------------------------
  alpha Z        PSCENC =      1107.65000600
  Ewald energy   TEWEN  =    -20785.53776012
  -Hartree energ DENC   =     -9158.26952635
  -exchange      EXHF   =         0.00000000
  -V(xc)+E(xc)   XCENC  =       456.22000443
  PAW double counting   =     29204.49273216   -30233.83341736
  entropy T*S    EENTRO =        -0.00147341
  eigenvalues    EBANDS =     -2528.08774848
  atomic energy  EATOM  =     31828.18944640
  Solvation  Ediel_sol  =         0.00000000
  ---------------------------------------------------
  free energy    TOTEN  =      -109.17773673 eV

  energy without entropy =     -109.17626332  energy(sigma->0) =     -109.17724559


[...]
  0.000   0.000   0.011   0.000  -0.000   0.000  -0.000   0.000  -0.006   0.000   0.000   0.000  -2.607   0.000   0.000   0.000
 -0.000   0.000  -0.000   0.000   0.011   0.000   0.000   0.000   0.000   0.000  -0.006   0.000   0.000   0.000  -2.620   0.000
 -0.000   0.000  -0.000   0.000   0.000   0.000   0.000   0.000   0.000   0.000   0.000   0.000   0.000   0.000  -0.000   0.000
  0.011   0.000   0.000   0.000  -0.000   0.000  -0.006   0.000  -0.000   0.000   0.000   0.000   0.000   0.000  -0.000   0.000
 -0.000   0.000   0.000   0.000  -0.000   0.000   0.000   0.000  -0.000   0.000  -0.000   0.000  -0.000   0.000   0.000   0.000
  0.000   0.000   0.000   0.000  -0.000   0.000   0.000   0.000   0.000   0.000  -0.000   0.000   0.000   0.000   0.000   0.000
  0.000   0.000   0.000   0.000  -0.000   0.000   0.000   0.000   0.000   0.000  -0.000   0.000   0.000   0.000   0.000   0.000
 pseudopotential strength for first ion, spin component:           2
-43.268   0.000   0.000   0.000  -0.000   0.000   6.870   0.000  -0.000   0.000   0.000   0.000   0.000   0.000   0.000   0.000
  0.000   0.000 -43.262   0.000   0.000   0.000  -0.000   0.000   6.867   0.000  -0.000   0.000  -0.012   0.000  -0.000   0.000
 -0.000   0.000   0.000   0.000 -43.252   0.000   0.000   0.000  -0.000   0.000   6.863   0.000  -0.000   0.000  -0.012   0.000
  6.870   0.000  -0.000   0.000   0.000   0.000   5.852   0.000  -0.000   0.000   0.000   0.000  -0.000   0.000  -0.000   0.000
 -0.000   0.000   6.867   0.000  -0.000   0.000  -0.000   0.000   5.852   0.000  -0.000   0.000   0.006   0.000   0.000   0.000
  0.000   0.000  -0.000   0.000   6.863   0.000   0.000   0.000  -0.000   0.000   5.853   0.000   0.000   0.000   0.006   0.000
  0.000   0.000  -0.012   0.000  -0.000   0.000  -0.000   0.000   0.006   0.000   0.000   0.000  -0.759   0.000   0.000   0.000
  0.000   0.000  -0.000   0.000  -0.012   0.000  -0.000   0.000   0.000   0.000   0.006   0.000   0.000   0.000  -0.768   0.000
 -0.000   0.000  -0.000   0.000  -0.000   0.000  -0.000   0.000   0.000   0.000   0.000   0.000   0.000   0.000  -0.000   0.000
 -0.012   0.000   0.000   0.000   0.000   0.000   0.006   0.000  -0.000   0.000  -0.000   0.000   0.000   0.000   0.000   0.000
 -0.000   0.000  -0.000   0.000   0.000   0.000  -0.000   0.000   0.000   0.000  -0.000   0.000  -0.000   0.000   0.000   0.000
  0.000   0.000  -0.012   0.000  -0.000   0.000  -0.000   0.000   0.006   0.000   0.000   0.000  -1.297   0.000   0.000   0.000
  0.000   0.000  -0.000   0.000  -0.012   0.000  -0.000   0.000   0.000   0.000   0.006   0.000   0.000   0.000  -1.305   0.000
 -0.000   0.000  -0.000   0.000  -0.000   0.000  -0.000   0.000   0.000   0.000   0.000   0.000   0.000   0.000  -0.000   0.000
 -0.012   0.000   0.000   0.000   0.000   0.000   0.006   0.000  -0.000   0.000  -0.000   0.000   0.000   0.000   0.000   0.000
 -0.000   0.000  -0.000   0.000   0.000   0.000  -0.000   0.000   0.000   0.000  -0.000   0.000  -0.000   0.000   0.000   0.000
  0.000   0.000  -0.000   0.000  -0.000   0.000   0.000   0.000  -0.000   0.000  -0.000   0.000   0.000   0.000  -0.000   0.000
  0.000   0.000  -0.000   0.000  -0.000   0.000   0.000   0.000  -0.000   0.000  -0.000   0.000   0.000   0.000  -0.000   0.000
 total augmentation occupancy for first ion, spin component:           1
  1.994   0.000   0.000  -0.019   0.000   0.000   0.000   0.000   0.000  -0.006   0.000   0.000   0.000   0.000   0.006   0.000
  0.000   1.994   0.000   0.000  -0.020   0.000  -0.006   0.000   0.000   0.000   0.000   0.006   0.000   0.000   0.000   0.000
  0.000   0.000   1.994   0.000   0.000  -0.019   0.000  -0.006   0.000   0.000   0.000   0.000   0.006   0.000   0.000   0.000
 -0.019   0.000   0.000   0.164   0.000   0.000   0.000   0.000   0.000  -0.048   0.000   0.000   0.000   0.000   0.013   0.000
  0.000  -0.020   0.000   0.000   0.170   0.000  -0.049   0.000   0.000   0.000   0.000   0.015   0.000   0.000   0.000   0.000
  0.000   0.000  -0.019   0.000   0.000   0.171   0.000  -0.051   0.000   0.000   0.000   0.000   0.017   0.000   0.000   0.000
  0.000  -0.006   0.000   0.000  -0.049   0.000   1.958   0.000   0.000   0.000   0.000  -1.052   0.000   0.000   0.000   0.000
  0.000   0.000  -0.006   0.000   0.000  -0.051   0.000   1.944   0.000   0.000   0.000   0.000  -1.046   0.000   0.000   0.000
  0.000   0.000   0.000   0.000   0.000   0.000   0.000   0.000   2.387   0.000   0.011   0.000   0.000  -1.353   0.000  -0.013
 -0.006   0.000   0.000  -0.048   0.000   0.000   0.000   0.000   0.000   1.977   0.000   0.000   0.000   0.000  -1.089   0.000
  0.000   0.000   0.000   0.000   0.000   0.000   0.000   0.000   0.011   0.000   2.376   0.000   0.000  -0.013   0.000  -1.345
  0.000   0.006   0.000   0.000   0.015   0.000  -1.052   0.000   0.000   0.000   0.000   1.572   0.000   0.000   0.000   0.000
  0.000   0.000   0.006   0.000   0.000   0.017   0.000  -1.046   0.000   0.000   0.000   0.000   1.570   0.000   0.000   0.000
  0.000   0.000   0.000   0.000   0.000   0.000   0.000   0.000  -1.353   0.000  -0.013   0.000   0.000   1.588   0.000  -0.001
  0.006   0.000   0.000   0.013   0.000   0.000   0.000   0.000   0.000  -1.089   0.000   0.000   0.000   0.000   1.600   0.000
  0.000   0.000   0.000   0.000   0.000   0.000   0.000   0.000  -0.013   0.000  -1.345   0.000   0.000  -0.001   0.000   1.577
  0.000   0.000   0.000   0.000   0.000   0.000   0.000   0.000  -0.005   0.000  -0.008   0.000   0.000   0.009   0.000   0.020
  0.000   0.000   0.000   0.000   0.000   0.000   0.000   0.000   0.000   0.000  -0.002   0.000   0.000  -0.000   0.000   0.000
 total augmentation occupancy for first ion, spin component:           2
 -0.002   0.000   0.000  -0.007   0.000   0.000   0.000   0.000   0.000  -0.009   0.000   0.000   0.000   0.000   0.009   0.000
  0.000  -0.002   0.000   0.000  -0.007   0.000  -0.009   0.000   0.000   0.000   0.000   0.009   0.000   0.000   0.000   0.000
  0.000   0.000  -0.002   0.000   0.000  -0.007   0.000  -0.009   0.000   0.000   0.000   0.000   0.009   0.000   0.000   0.000
 -0.007   0.000   0.000  -0.003   0.000   0.000   0.000   0.000   0.000   0.047   0.000   0.000   0.000   0.000  -0.002   0.000
  0.000  -0.007   0.000   0.000  -0.007   0.000   0.043   0.000   0.000   0.000   0.000   0.000   0.000   0.000   0.000   0.000
  0.000   0.000  -0.007   0.000   0.000  -0.008   0.000   0.040   0.000   0.000   0.000   0.000   0.001   0.000   0.000   0.000
  0.000  -0.009   0.000   0.000   0.043   0.000   1.178   0.000   0.000   0.000   0.000  -0.310   0.000   0.000   0.000   0.000
  0.000   0.000  -0.009   0.000   0.000   0.040   0.000   1.189   0.000   0.000   0.000   0.000  -0.312   0.000   0.000   0.000
  0.000   0.000   0.000   0.000   0.000   0.000   0.000   0.000   1.927   0.000   0.014   0.000   0.000  -0.622   0.000   0.005
 -0.009   0.000   0.000   0.047   0.000   0.000   0.000   0.000   0.000   1.243   0.000   0.000   0.000   0.000  -0.320   0.000
  0.000   0.000   0.000   0.000   0.000   0.000   0.000   0.000   0.014   0.000   1.898   0.000   0.000   0.005   0.000  -0.604
  0.000   0.009   0.000   0.000   0.000   0.000  -0.310   0.000   0.000   0.000   0.000  -0.184   0.000   0.000   0.000   0.000
  0.000   0.000   0.009   0.000   0.000   0.001   0.000  -0.312   0.000   0.000   0.000   0.000  -0.185   0.000   0.000   0.000
  0.000   0.000   0.000   0.000   0.000   0.000   0.000   0.000  -0.622   0.000   0.005   0.000   0.000  -0.047   0.000  -0.000
  0.009   0.000   0.000  -0.002   0.000   0.000   0.000   0.000   0.000  -0.320   0.000   0.000   0.000   0.000  -0.193   0.000
  0.000   0.000   0.000   0.000   0.000   0.000   0.000   0.000   0.005   0.000  -0.604   0.000   0.000  -0.000   0.000  -0.051
  0.000   0.000   0.000   0.000   0.000   0.000   0.000   0.000  -0.000   0.000  -0.002   0.000   0.000  -0.006   0.000  -0.013
  0.000   0.000   0.000   0.000   0.000   0.000   0.000   0.000   0.000   0.000  -0.002   0.000   0.000   0.000   0.000   0.001


------------------------ aborting loop because EDIFF is reached ----------------------------------------


 


 total charge     
 
# of ion       s       p       d       tot
------------------------------------------
    1        0.313   6.315   6.210  12.838
    2        0.313   6.315   6.210  12.838
    3        0.308   6.311   6.231  12.849
    4        0.308   6.311   6.231  12.849
    5        0.335   6.309   6.019  12.663
    6        0.335   6.309   6.019  12.663
    7        0.335   6.309   6.019  12.663
    8        0.335   6.309   6.019  12.663
    9        0.393   6.409   7.445  14.247
   10        0.399   6.412   7.420  14.232
   11        0.393   6.409   7.445  14.247
   12        0.399   6.412   7.420  14.232
   13        1.309   2.059   0.368   3.735
   14        1.309   2.059   0.368   3.735
   15        1.309   2.059   0.368   3.735
   16        1.309   2.059   0.368   3.735
--------------------------------------------------
tot          9.398  84.365  80.157 173.920
 


 magnetization (x)
 
# of ion       s       p       d       tot
------------------------------------------
    1        0.004  -0.014   2.046   2.036
    2        0.004  -0.014   2.046   2.036
    3        0.004  -0.010   1.889   1.884
    4        0.004  -0.010   1.889   1.884
    5        0.003  -0.006   2.753   2.750
    6        0.003  -0.006   2.753   2.750
    7        0.003  -0.006   2.753   2.750
    8        0.003  -0.006   2.753   2.750
    9       -0.004  -0.021   1.016   0.990
   10       -0.005  -0.026   1.180   1.148
   11       -0.004  -0.021   1.016   0.990
   12       -0.005  -0.026   1.180   1.148
   13       -0.001  -0.088  -0.030  -0.119
   14       -0.001  -0.088  -0.030  -0.119
   15       -0.001  -0.088  -0.030  -0.119
   16       -0.001  -0.088  -0.030  -0.119
--------------------------------------------------
tot          0.003  -0.516  23.154  22.641
 
    CHARGE:  cpu time    0.6440: real time    0.6471
    FORLOC:  cpu time    0.0040: real time    0.0056
    FORNL :  cpu time    2.7962: real time    2.8032
    STRESS:  cpu time    8.7165: real time    8.7464
    FORCOR:  cpu time    0.0760: real time    0.0734
    FORHAR:  cpu time    0.0080: real time    0.0111
    MIXING:  cpu time    0.0040: real time    0.0019
    OFIELD:  cpu time    0.0000: real time    0.0000

  FORCE on cell =-STRESS in cart. coord.  units (eV):
  Direction    XX          YY          ZZ          XY          YZ          ZX
  --------------------------------------------------------------------------------------
  Alpha Z  1107.65001  1107.65001  1107.65001
  Ewald   -6928.26301 -6928.26301 -6929.07154     0.00000     0.00000    -0.00000
  Hartree  3052.95297  3052.95297  3052.43501    -0.00000    -0.00000    -0.00000
  E(xc)   -1192.32689 -1192.32689 -1192.31780    -0.00000     0.00000     0.00000
  Local     739.47655   739.47655   739.26081     0.00000     0.00000     0.00000
  n-local  -201.80393  -197.14400  -199.81733    -0.43261    -0.59773    -0.27569
  augment  1668.31320  1668.31320  1669.53382    -0.00000    -0.00000     0.00000
  Kinetic  1747.73862  1755.72823  1752.38313    -0.44849    -0.36303    -0.86089
  Fock        0.00000     0.00000     0.00000     0.00000     0.00000     0.00000
  -------------------------------------------------------------------------------------
  Total       0.06228     0.06228     0.05612     0.00000     0.00000     0.00000
  in kB       0.46560     0.46560     0.41955     0.00000     0.00000     0.00000
  external pressure =        0.45 kB  Pullay stress =        0.00 kB


 VOLUME and BASIS-vectors are now :
 -----------------------------------------------------------------------------
  energy-cutoff  :      500.00
  volume of cell :      214.30
      direct lattice vectors                 reciprocal lattice vectors
     5.980332386  0.000000000  0.000000000     0.167214786  0.000000000  0.000000000
     0.000000000  5.980332386  0.000000000     0.000000000  0.167214786  0.000000000
     0.000000000  0.000000000  5.992100350     0.000000000  0.000000000  0.166886391

  length of vectors
     5.980332386  5.980332386  5.992100350     0.167214786  0.167214786  0.166886391


 FORCES acting on ions
    electron-ion (+dipol)            ewald-force                    non-local-force                 convergence-correction
 -----------------------------------------------------------------------------------------------
   0.288E-10 -.234E-10 0.213E-09   0.149E-12 0.000E+00 0.284E-13   0.000E+00 0.000E+00 0.000E+00   -.338E-13 -.590E-12 -.480E-12
   0.245E-10 -.234E-10 -.196E-09   0.135E-12 -.426E-13 0.142E-13   0.000E+00 0.000E+00 0.000E+00   -.351E-12 0.140E-12 0.518E-12
   -.245E-10 -.233E-10 0.197E-09   0.213E-13 -.114E-12 -.711E-14   0.000E+00 0.000E+00 0.000E+00   -.173E-12 0.671E-13 0.246E-12
   0.256E-10 0.404E-10 -.195E-09   -.782E-13 0.639E-13 0.142E-13   0.000E+00 0.000E+00 0.000E+00   0.148E-14 -.622E-12 -.187E-12
   -.368E+01 0.368E+01 0.324E-14   0.451E+01 -.451E+01 0.232E-14   -.850E+00 0.850E+00 -.867E-18   0.175E-01 -.175E-01 -.186E-13
   -.368E+01 -.368E+01 0.358E-11   0.451E+01 0.451E+01 0.289E-13   -.850E+00 -.850E+00 0.000E+00   0.175E-01 0.175E-01 -.221E-13
   0.368E+01 0.368E+01 -.258E-11   -.451E+01 -.451E+01 0.536E-15   0.850E+00 0.850E+00 -.434E-18   -.175E-01 -.175E-01 -.406E-13
   0.368E+01 -.368E+01 0.575E-11   -.451E+01 0.451E+01 0.307E-13   0.850E+00 -.850E+00 0.000E+00   -.175E-01 0.175E-01 -.114E-13
   -.179E-10 0.165E-10 -.917E-09   0.142E-13 -.639E-13 0.142E-13   0.000E+00 0.000E+00 0.000E+00   0.223E-12 -.668E-12 -.494E-12
   -.981E-11 -.312E-11 0.918E-09   -.711E-14 0.711E-13 -.711E-13   0.000E+00 0.000E+00 0.000E+00   0.628E-13 -.656E-12 -.271E-12
   -.197E-10 0.166E-10 0.919E-09   -.114E-12 0.711E-14 -.426E-13   0.000E+00 0.000E+00 0.000E+00   -.116E-12 0.598E-13 0.508E-12
   0.663E-11 0.231E-10 -.910E-09   0.163E-12 -.568E-13 -.639E-13   0.000E+00 0.000E+00 0.000E+00   -.351E-12 0.115E-12 0.272E-12
   -.655E+01 0.655E+01 0.889E-12   0.640E+01 -.640E+01 0.720E-14   0.142E+00 -.142E+00 0.000E+00   0.405E-02 -.405E-02 -.658E-16
   0.655E+01 0.655E+01 -.171E-11   -.640E+01 -.640E+01 0.738E-14   -.142E+00 -.142E+00 0.000E+00   -.405E-02 -.405E-02 0.446E-14
   -.655E+01 -.655E+01 -.543E-12   0.640E+01 0.640E+01 0.216E-13   0.142E+00 0.142E+00 0.000E+00   0.405E-02 0.405E-02 -.156E-14
   0.655E+01 -.655E+01 -.944E-12   -.640E+01 0.640E+01 0.643E-14   -.142E+00 0.142E+00 0.000E+00   -.405E-02 0.405E-02 0.372E-15
 -----------------------------------------------------------------------------------------------
   0.130E-09 -.848E-10 0.328E-10   0.471E-13 0.711E-14 -.865E-14   -.333E-15 0.000E+00 -.130E-17   -.687E-12 -.884E-12 0.213E-13
 
 
 POSITION                                       TOTAL-FORCE (eV/Angst)
 -----------------------------------------------------------------------------------
      2.99017      0.00000      2.99605         0.000000     -0.000000     -0.000000
      2.99017      0.00000      0.00000         0.000000     -0.000000     -0.000000
      0.00000      0.00000      2.99605         0.000000     -0.000000     -0.000000
      2.99017      2.99017      0.00000         0.000000     -0.000000     -0.000000
      1.52305      1.46712      4.49408        -0.000958      0.000958      0.000000
      1.52305      4.51322      1.49803        -0.000958     -0.000958     -0.000000
      4.45728      1.46712      1.49803         0.000958      0.000958     -0.000000
      4.45728      4.51322      4.49408         0.000958     -0.000958      0.000000
      0.00000      2.99017      2.99605         0.000000     -0.000000     -0.000000
      0.00000      0.00000      0.00000         0.000000     -0.000000     -0.000000
      0.00000      2.99017      0.00000         0.000000     -0.000000     -0.000000
      2.99017      2.99017      2.99605         0.000000     -0.000000     -0.000000
      1.47270      1.51746      1.49803         0.001090     -0.001090     -0.000000
      4.50763      1.51746      4.49408        -0.001090     -0.001090      0.000000
      1.47270      4.46287      4.49408         0.001090      0.001090      0.000000
      4.50763      4.46287      1.49803        -0.001090      0.001090     -0.000000
 -----------------------------------------------------------------------------------
    total drift:                                0.000000     -0.000000      0.000000


--------------------------------------------------------------------------------------------------------



  FREE ENERGIE OF THE ION-ELECTRON SYSTEM (eV)
  ---------------------------------------------------
  free  energy   TOTEN  =      -109.17773222 eV

  energy  without entropy=     -109.17622918  energy(sigma->0) =     -109.17723120
 


--------------------------------------------------------------------------------------------------------


    POTLOK:  cpu time    0.3320: real time    0.3336


--------------------------------------------------------------------------------------------------------


     LOOP+:  cpu time  300.9148: real time  302.0916
    4ORBIT:  cpu time    0.0000: real time    0.0000
 


 total charge     
 
# of ion       s       p       d       tot
------------------------------------------
    1        0.313   6.315   6.210  12.838
    2        0.313   6.315   6.210  12.838
    3        0.308   6.311   6.231  12.849
    4        0.308   6.311   6.231  12.849
    5        0.335   6.309   6.019  12.663
    6        0.335   6.309   6.019  12.663
    7        0.335   6.309   6.019  12.663
    8        0.335   6.309   6.019  12.663
    9        0.393   6.409   7.445  14.247
   10        0.399   6.412   7.420  14.232
   11        0.393   6.409   7.445  14.247
   12        0.399   6.412   7.420  14.232
   13        1.309   2.059   0.368   3.735
   14        1.309   2.059   0.368   3.735
   15        1.309   2.059   0.368   3.735
   16        1.309   2.059   0.368   3.735
--------------------------------------------------
tot          9.398  84.365  80.157 173.920
 


 magnetization (x)
 
# of ion       s       p       d       tot
------------------------------------------
    1        0.004  -0.014   2.046   2.036
    2        0.004  -0.014   2.046   2.036
    3        0.004  -0.010   1.889   1.884
    4        0.004  -0.010   1.889   1.884
    5        0.003  -0.006   2.753   2.750
    6        0.003  -0.006   2.753   2.750
    7        0.003  -0.006   2.753   2.750
    8        0.003  -0.006   2.753   2.750
    9       -0.004  -0.021   1.016   0.990
   10       -0.005  -0.026   1.180   1.148
   11       -0.004  -0.021   1.016   0.990
   12       -0.005  -0.026   1.180   1.148
   13       -0.001  -0.088  -0.030  -0.119
   14       -0.001  -0.088  -0.030  -0.119
   15       -0.001  -0.088  -0.030  -0.119
   16       -0.001  -0.088  -0.030  -0.119
--------------------------------------------------
tot          0.003  -0.516  23.154  22.641
 

 total amount of memory used by VASP MPI-rank0    54908. kBytes
=======================================================================

   base      :      30000. kBytes
   nonlr-proj:       4693. kBytes
   fftplans  :       4343. kBytes
   grid      :       3686. kBytes
   one-center:         62. kBytes
   wavefun   :      12124. kBytes
 
  
  
 General timing and accounting informations for this job:
 ========================================================
  
                  Total CPU time used (sec):      313.792
                            User time (sec):      311.491
                          System time (sec):        2.300
                         Elapsed time (sec):      316.555
  
                   Maximum memory used (kb):     1114260.
                   Average memory used (kb):           0.
  
                          Minor page faults:       494240
                          Major page faults:            6
                 Voluntary context switches:         3529
