 vasp.6.1.1 19Jun20 (build Jan 21 2021 08:43:03) complex                        
  
 executed on             LinuxIFC date 2023.04.01  04:07:17
 running on   80 total cores
 distrk:  each k-point on   80 cores,    1 groups
 distr:  one band on NCORE=  20 cores,    4 groups


--------------------------------------------------------------------------------------------------------


 INCAR:
 POTCAR:    PAW_PBE Fe_pv 02Aug2007               
 POTCAR:    PAW_PBE Co_pv 23Apr2009               
 POTCAR:       PAW_PBE Si 05Jan2001               
 -----------------------------------------------------------------------------
|                                                                             |
|           W    W    AA    RRRRR   N    N  II  N    N   GGGG   !!!           |
|           W    W   A  A   R    R  NN   N  II  NN   N  G    G  !!!           |
|           W    W  A    A  R    R  N N  N  II  N N  N  G       !!!           |
|           W WW W  AAAAAA  RRRRR   N  N N  II  N  N N  G  GGG   !            |
|           WW  WW  A    A  R   R   N   NN  II  N   NN  G    G                |
|           W    W  A    A  R    R  N    N  II  N    N   GGGG   !!!           |
|                                                                             |
|     The value NCORE = 8 specified in the INCAR file was overwritten,        |
|     because it was not compatible with the 80 processes available:          |
|     NCORE = 20                                                              |
|     was used instead, please check that this makes sense for your           |
|     machine.                                                                |
|                                                                             |
 -----------------------------------------------------------------------------

 -----------------------------------------------------------------------------
|                                                                             |
|           W    W    AA    RRRRR   N    N  II  N    N   GGGG   !!!           |
|           W    W   A  A   R    R  NN   N  II  NN   N  G    G  !!!           |
|           W    W  A    A  R    R  N N  N  II  N N  N  G       !!!           |
|           W WW W  AAAAAA  RRRRR   N  N N  II  N  N N  G  GGG   !            |
|           WW  WW  A    A  R   R   N   NN  II  N   NN  G    G                |
|           W    W  A    A  R    R  N    N  II  N    N   GGGG   !!!           |
|                                                                             |
|     For optimal performance we recommend to set                             |
|       NCORE = 4 - approx SQRT(number of cores).                             |
|     NCORE specifies how many cores store one orbital (NPAR=cpu/NCORE).      |
|     This setting can greatly improve the performance of VASP for DFT.       |
|     The default, NCORE=1 might be grossly inefficient on modern             |
|     multi-core architectures or massively parallel machines. Do your        |
|     own testing!!!!                                                         |
|     Unfortunately you need to use the default for GW and RPA                |
|     calculations (for HF NCORE is supported but not extensively tested      |
|     yet).                                                                   |
|                                                                             |
 -----------------------------------------------------------------------------

 POTCAR:    PAW_PBE Fe_pv 02Aug2007               
   VRHFIN =Fe:  3pd7s1                                                                              
   LEXCH  = PE                                                                                      
   EATOM  =  2457.4239 eV,  180.6156 Ry                                                             
                                                                                                    
   TITEL  = PAW_PBE Fe_pv 02Aug2007                                                                 
   LULTRA =        F    use ultrasoft PP ?                                                          
   IUNSCR =        1    unscreen: 0-lin 1-nonlin 2-no                                               
   RPACOR =    1.750    partial core radius                                                         
   POMASS =   55.847; ZVAL   =   14.000    mass and valenz                                          
   RCORE  =    2.200    outmost cutoff radius                                                       
   RWIGS  =    2.200; RWIGS  =    1.164    wigner-seitz radius (au A)                               
   ENMAX  =  293.238; ENMIN  =  219.928 eV                                                          
   ICORE  =        3    local potential                                                             
   LCOR   =        T    correct aug charges                                                         
   LPAW   =        T    paw PP                                                                      
   EAUG   =  578.342                                                                                
   DEXC   =    0.000                                                                                
   RMAX   =    2.249    core radius for proj-oper                                                   
   RAUG   =    1.300    factor for augmentation sphere                                              
   RDEP   =    2.296    radius for radial grids                                                     
   RDEPT  =    1.766    core radius for aug-charge                                                  
                                                                                                    
   Atomic configuration                                                                             
    8 entries                                                                                       
     n  l   j            E        occ.                                                              
     1  0  0.50     -6993.8440   2.0000                                                             
     2  0  0.50      -814.6047   2.0000                                                             
     2  1  1.50      -693.3689   6.0000                                                             
     3  0  0.50       -89.4732   2.0000                                                             
     3  1  1.50       -55.6373   6.0000                                                             
     3  2  2.50        -3.8151   7.0000                                                             
     4  0  0.50        -4.2551   1.0000                                                             
     4  3  2.50        -1.3606   0.0000                                                             
   Description                                                                                      
     l       E           TYP  RCUT    TYP  RCUT                                                     
     1    -55.6372668     23  2.000                                                                 
     1     -5.4423304     23  2.000                                                                 
     2     -3.8151096     23  2.200                                                                 
     2     -5.1756922     23  2.200                                                                 
     0     -4.2550951     23  2.200                                                                 
     0     27.2116520     23  2.200                                                                 
     3     -1.3605826     23  2.200                                                                 
  local pseudopotential read in
  partial core-charges read in
  partial kinetic energy density read in
  atomic valenz-charges read in
  non local Contribution for L=           1  read in
    real space projection operators read in
  non local Contribution for L=           1  read in
    real space projection operators read in
  non local Contribution for L=           2  read in
    real space projection operators read in
  non local Contribution for L=           2  read in
    real space projection operators read in
  non local Contribution for L=           0  read in
    real space projection operators read in
  non local Contribution for L=           0  read in
    real space projection operators read in
    PAW grid and wavefunctions read in
 
   number of l-projection  operators is LMAX  =           6
   number of lm-projection operators is LMMAX =          18
 
 POTCAR:    PAW_PBE Co_pv 23Apr2009               
   VRHFIN =Co: 3pd7s1                                                                               
   LEXCH  = PE                                                                                      
   EATOM  =  2948.1334 eV,  216.6817 Ry                                                             
                                                                                                    
   TITEL  = PAW_PBE Co_pv 23Apr2009                                                                 
   LULTRA =        F    use ultrasoft PP ?                                                          
   IUNSCR =        1    unscreen: 0-lin 1-nonlin 2-no                                               
   RPACOR =    2.000    partial core radius                                                         
   POMASS =   58.933; ZVAL   =   15.000    mass and valenz                                          
   RCORE  =    2.300    outmost cutoff radius                                                       
   RWIGS  =    2.460; RWIGS  =    1.302    wigner-seitz radius (au A)                               
   ENMAX  =  271.042; ENMIN  =  203.281 eV                                                          
   ICORE  =        3    local potential                                                             
   LCOR   =        T    correct aug charges                                                         
   LPAW   =        T    paw PP                                                                      
   EAUG   =  543.066                                                                                
   DEXC   =    0.000                                                                                
   RMAX   =    2.360    core radius for proj-oper                                                   
   RAUG   =    1.300    factor for augmentation sphere                                              
   RDEP   =    2.393    radius for radial grids                                                     
   RDEPT  =    1.841    core radius for aug-charge                                                  
                                                                                                    
   Atomic configuration                                                                             
    8 entries                                                                                       
     n  l   j            E        occ.                                                              
     1  0  0.50     -7587.6674   2.0000                                                             
     2  0  0.50      -893.6084   2.0000                                                             
     2  1  1.50      -764.5805   6.0000                                                             
     3  0  0.50       -97.5973   2.0000                                                             
     3  1  1.50       -60.9648   6.0000                                                             
     3  2  2.50        -4.2382   8.0000                                                             
     4  0  0.50        -4.3746   1.0000                                                             
     4  3  2.50        -1.3606   0.0000                                                             
   Description                                                                                      
     l       E           TYP  RCUT    TYP  RCUT                                                     
     1    -60.9647990     23  2.000                                                                 
     1     -5.4423304     23  2.000                                                                 
     2     -4.2382362     23  2.300                                                                 
     2     -5.5988188     23  2.300                                                                 
     0     -4.3745797     23  2.300                                                                 
     0      5.7660125     23  2.300                                                                 
     3     -1.3605826     23  2.300                                                                 
  local pseudopotential read in
  partial core-charges read in
  partial kinetic energy density read in
  atomic valenz-charges read in
  non local Contribution for L=           1  read in
    real space projection operators read in
  non local Contribution for L=           1  read in
    real space projection operators read in
  non local Contribution for L=           2  read in
    real space projection operators read in
  non local Contribution for L=           2  read in
    real space projection operators read in
  non local Contribution for L=           0  read in
    real space projection operators read in
  non local Contribution for L=           0  read in
    real space projection operators read in
    PAW grid and wavefunctions read in
 
   number of l-projection  operators is LMAX  =           6
   number of lm-projection operators is LMMAX =          18
 
 POTCAR:       PAW_PBE Si 05Jan2001               
   VRHFIN =Si: s2p2                                                                                 
   LEXCH  = PE                                                                                      
   EATOM  =   103.0669 eV,    7.5752 Ry                                                             
                                                                                                    
   TITEL  = PAW_PBE Si 05Jan2001                                                                    
   LULTRA =        F    use ultrasoft PP ?                                                          
   IUNSCR =        1    unscreen: 0-lin 1-nonlin 2-no                                               
   RPACOR =    1.500    partial core radius                                                         
   POMASS =   28.085; ZVAL   =    4.000    mass and valenz                                          
   RCORE  =    1.900    outmost cutoff radius                                                       
   RWIGS  =    2.480; RWIGS  =    1.312    wigner-seitz radius (au A)                               
   ENMAX  =  245.345; ENMIN  =  184.009 eV                                                          
   ICORE  =        2    local potential                                                             
   LCOR   =        T    correct aug charges                                                         
   LPAW   =        T    paw PP                                                                      
   EAUG   =  322.069                                                                                
   DEXC   =    0.000                                                                                
   RMAX   =    1.950    core radius for proj-oper                                                   
   RAUG   =    1.300    factor for augmentation sphere                                              
   RDEP   =    1.993    radius for radial grids                                                     
   RDEPT  =    1.837    core radius for aug-charge                                                  
                                                                                                    
   Atomic configuration                                                                             
    6 entries                                                                                       
     n  l   j            E        occ.                                                              
     1  0  0.50     -1785.8828   2.0000                                                             
     2  0  0.50      -139.4969   2.0000                                                             
     2  1  1.50       -95.5546   6.0000                                                             
     3  0  0.50       -10.8127   2.0000                                                             
     3  1  0.50        -4.0811   2.0000                                                             
     3  2  1.50        -4.0817   0.0000                                                             
   Description                                                                                      
     l       E           TYP  RCUT    TYP  RCUT                                                     
     0    -10.8127223     23  1.900                                                                 
     0     -7.6451159     23  1.900                                                                 
     1     -4.0811372     23  1.900                                                                 
     1      2.4879257     23  1.900                                                                 
     2     -4.0817478      7  1.900                                                                 
  local pseudopotential read in
  partial core-charges read in
  partial kinetic energy density read in
  atomic valenz-charges read in
  non local Contribution for L=           0  read in
    real space projection operators read in
  non local Contribution for L=           0  read in
    real space projection operators read in
  non local Contribution for L=           1  read in
    real space projection operators read in
  non local Contribution for L=           1  read in
    real space projection operators read in
    PAW grid and wavefunctions read in
 
   number of l-projection  operators is LMAX  =           4
   number of lm-projection operators is LMMAX =           8
 
 Optimization of the real space projectors (new method)

 maximal supplied QI-value         = 17.01
 optimisation between [QCUT,QGAM] = [ 11.40, 22.79] = [ 36.36,145.44] Ry 
 Optimized for a Real-space Cutoff    1.47 Angstroem

   l    n(q)    QCUT    max X(q) W(low)/X(q) W(high)/X(q)  e(spline) 
   1     10    11.395     4.267    0.90E-04    0.11E-03    0.18E-06
   1     10    11.395     5.750    0.14E-03    0.15E-03    0.25E-06
   2      9    11.395    53.656    0.13E-03    0.36E-04    0.15E-06
   2      9    11.395    49.521    0.14E-03    0.36E-04    0.15E-06
   0     10    11.395    31.246    0.58E-04    0.17E-05    0.98E-07
   0     10    11.395    12.201    0.41E-04    0.11E-05    0.82E-07
 Optimization of the real space projectors (new method)

 maximal supplied QI-value         = 16.25
 optimisation between [QCUT,QGAM] = [ 11.38, 22.75] = [ 36.24,144.96] Ry 
 Optimized for a Real-space Cutoff    1.47 Angstroem

   l    n(q)    QCUT    max X(q) W(low)/X(q) W(high)/X(q)  e(spline) 
   1     10    11.376     4.946    0.88E-04    0.16E-03    0.15E-06
   1     10    11.376     5.991    0.13E-03    0.24E-03    0.21E-06
   2      9    11.376    46.947    0.87E-04    0.91E-04    0.20E-06
   2      9    11.376    42.928    0.91E-04    0.94E-04    0.20E-06
   0     10    11.376    68.324    0.58E-04    0.21E-04    0.82E-07
   0     10    11.376    36.926    0.52E-04    0.19E-04    0.78E-07
 Optimization of the real space projectors (new method)

 maximal supplied QI-value         = 19.84
 optimisation between [QCUT,QGAM] = [ 11.31, 22.82] = [ 35.82,145.81] Ry 
 Optimized for a Real-space Cutoff    1.20 Angstroem

   l    n(q)    QCUT    max X(q) W(low)/X(q) W(high)/X(q)  e(spline) 
   0      8    11.310   159.560    0.13E-03    0.16E-03    0.42E-07
   0      8    11.310   115.863    0.12E-03    0.16E-03    0.41E-07
   1      8    11.310    88.339    0.16E-03    0.14E-03    0.80E-07
   1      8    11.310    48.592    0.16E-03    0.14E-03    0.78E-07
  PAW_PBE Fe_pv 02Aug2007               :
 energy of atom  1       EATOM=-2457.4239
 kinetic energy error for atom=    0.0069 (will be added to EATOM!!)
  PAW_PBE Co_pv 23Apr2009               :
 energy of atom  2       EATOM=-2948.1334
 kinetic energy error for atom=    0.0060 (will be added to EATOM!!)
     PAW_PBE Si 05Jan2001               :
 energy of atom  3       EATOM= -103.0669
 kinetic energy error for atom=    0.0006 (will be added to EATOM!!)
 
 
 POSCAR: Heusler tetragonal
  positions in direct lattice
  velocities in cartesian coordinates
 exchange correlation table for  LEXCH =        8
   RHO(1)=    0.500       N(1)  =     2000
   RHO(2)=  100.500       N(2)  =     4000
 


--------------------------------------------------------------------------------------------------------


 ion  position               nearest neighbor table
   1  0.500  0.000  0.500-   5 2.41   6 2.41   7 2.41   8 2.41  13 2.43  14 2.43  15 2.43  16 2.43

   2  0.500  0.000  0.000-   5 2.41   6 2.41   7 2.41   8 2.41  13 2.43  14 2.43  15 2.43  16 2.43

   3  0.000  0.000  0.500-  13 2.43  14 2.43  15 2.43  16 2.43   5 2.43   6 2.43   7 2.43   8 2.43

   4  0.500  0.500  0.000-  13 2.43  14 2.43  15 2.43  16 2.43   5 2.43   6 2.43   7 2.43   8 2.43

   5  0.253  0.247  0.750-   1 2.41   2 2.41   3 2.43   4 2.43  10 2.43  12 2.43  11 2.44   9 2.44
                            14 2.79  15 2.79
   6  0.253  0.753  0.250-   1 2.41   2 2.41   3 2.43   4 2.43  10 2.43  12 2.43  11 2.44   9 2.44
                            13 2.79  16 2.79
   7  0.747  0.247  0.250-   1 2.41   2 2.41   3 2.43   4 2.43  10 2.43  12 2.43  11 2.44   9 2.44
                            13 2.79  16 2.79
   8  0.747  0.753  0.750-   1 2.41   2 2.41   3 2.43   4 2.43  10 2.43  12 2.43  11 2.44   9 2.44
                            14 2.79  15 2.79
   9  0.000  0.500  0.500-  13 2.42  14 2.42  15 2.42  16 2.42   5 2.44   6 2.44   7 2.44   8 2.44

  10  0.000  0.000  0.000-  13 2.43  14 2.43  15 2.43  16 2.43   5 2.43   6 2.43   7 2.43   8 2.43

  11  0.000  0.500  0.000-  13 2.42  14 2.42  15 2.42  16 2.42   5 2.44   6 2.44   7 2.44   8 2.44

  12  0.500  0.500  0.500-  13 2.43  14 2.43  15 2.43  16 2.43   5 2.43   6 2.43   7 2.43   8 2.43

  13  0.249  0.251  0.250-   9 2.42  11 2.42   3 2.43  10 2.43   4 2.43  12 2.43   1 2.43   2 2.43
                             6 2.79   7 2.79
  14  0.751  0.251  0.750-   9 2.42  11 2.42   3 2.43  10 2.43   4 2.43  12 2.43   1 2.43   2 2.43
                             5 2.79   8 2.79
  15  0.249  0.749  0.750-   9 2.42  11 2.42   3 2.43  10 2.43   4 2.43  12 2.43   1 2.43   2 2.43
                             5 2.79   8 2.79
  16  0.751  0.749  0.250-   9 2.42  11 2.42   3 2.43  10 2.43   4 2.43  12 2.43   1 2.43   2 2.43
                             6 2.79   7 2.79
 
 -----------------------------------------------------------------------------
|                                                                             |
|           W    W    AA    RRRRR   N    N  II  N    N   GGGG   !!!           |
|           W    W   A  A   R    R  NN   N  II  NN   N  G    G  !!!           |
|           W    W  A    A  R    R  N N  N  II  N N  N  G       !!!           |
|           W WW W  AAAAAA  RRRRR   N  N N  II  N  N N  G  GGG   !            |
|           WW  WW  A    A  R   R   N   NN  II  N   NN  G    G                |
|           W    W  A    A  R    R  N    N  II  N    N   GGGG   !!!           |
|                                                                             |
|     The determination of the symmetry of your systems shows a strong        |
|     dependence on the tolerance parameter SYMPREC. This is often the        |
|     result of "noise" in the structural parameters (lattice vectors         |
|     and/or ionic positions). Set NWRITE=3 for more details.                 |
|                                                                             |
 -----------------------------------------------------------------------------

  LATTYP: Found a simple tetragonal cell.
 ALAT       =     5.6005841374
 C/A-ratio  =     1.0000242867
  
  Lattice vectors:
  
 A1 = (   5.6005841374,   0.0000000000,   0.0000000000)
 A2 = (   0.0000000000,   5.6005841374,   0.0000000000)
 A3 = (   0.0000000000,   0.0000000000,   5.6007201569)


Analysis of symmetry for initial positions (statically):
=====================================================================
 Subroutine PRICEL returns:
 Original cell was already a primitive cell.
 

 Routine SETGRP: Setting up the symmetry group for a 
 simple tetragonal supercell.


 Subroutine GETGRP returns: Found  8 space group operations
 (whereof  4 operations were pure point group operations)
 out of a pool of 16 trial point group operations.


The static configuration has the point symmetry D_2 .
 The point group associated with its full space group is D_4 .


Analysis of symmetry for dynamics (positions and initial velocities):
=====================================================================
 Subroutine PRICEL returns:
 Original cell was already a primitive cell.
 

 Routine SETGRP: Setting up the symmetry group for a 
 simple tetragonal supercell.


 Subroutine GETGRP returns: Found  8 space group operations
 (whereof  4 operations were pure point group operations)
 out of a pool of 16 trial point group operations.


The dynamic configuration has the point symmetry D_2 .
 The point group associated with its full space group is D_4 .


Analysis of structural, dynamic, and magnetic symmetry:
=====================================================================
 Subroutine PRICEL returns:
 Original cell was already a primitive cell.
 

 Routine SETGRP: Setting up the symmetry group for a 
 simple tetragonal supercell.


 Subroutine GETGRP returns: Found  8 space group operations
 (whereof  4 operations were pure point group operations)
 out of a pool of 16 trial point group operations.


The magnetic configuration has the point symmetry D_2 .
 The point group associated with its full space group is D_4 .


 Subroutine INISYM returns: Found  8 space group operations
 (whereof  4 operations are pure point group operations),
 and found     1 'primitive' translations


----------------------------------------------------------------------------------------

                                     Primitive cell                                     

  volume of cell :     175.6752

  direct lattice vectors                    reciprocal lattice vectors
     5.600584137  0.000000000  0.000000000     0.178552804  0.000000000  0.000000000
     0.000000000  5.600584137  0.000000000     0.000000000  0.178552804  0.000000000
     0.000000000  0.000000000  5.600720157     0.000000000  0.000000000  0.178548467

  length of vectors
     5.600584137  5.600584137  5.600720157     0.178552804  0.178552804  0.178548467

  position of ions in fractional coordinates (direct lattice)
     0.500000000  0.000000000  0.500000000
     0.500000000  0.000000000  0.000000000
     0.000000000  0.000000000  0.500000000
     0.500000000  0.500000000  0.000000000
     0.252539481  0.247460519  0.750000000
     0.252539481  0.752539481  0.250000000
     0.747460519  0.247460519  0.250000000
     0.747460519  0.752539481  0.750000000
     0.000000000  0.500000000  0.500000000
     0.000000000  0.000000000  0.000000000
     0.000000000  0.500000000  0.000000000
     0.500000000  0.500000000  0.500000000
     0.249402194  0.250597806  0.250000000
     0.750597806  0.250597806  0.750000000
     0.249402194  0.749402194  0.750000000
     0.750597806  0.749402194  0.250000000

  ion indices of the primitive-cell ions
   primitive index   ion index
                 1           1
                 2           2
                 3           3
                 4           4
                 5           5
                 6           6
                 7           7
                 8           8
                 9           9
                10          10
                11          11
                12          12
                13          13
                14          14
                15          15
                16          16

----------------------------------------------------------------------------------------

 
 
 KPOINTS: Ni7CoMn5CrSn2                           

Automatic generation of k-mesh.
Space group operators:
 irot       det(A)        alpha          n_x          n_y          n_z        tau_x        tau_y        tau_z
    1     1.000000     0.000000     1.000000     0.000000     0.000000     0.000000     0.000000     0.000000
    2     1.000000   180.000000     0.000000     0.000000     1.000000     0.000000     0.000000     0.000000
    3     1.000000   180.000000     0.000000     1.000000     0.000000     0.000000     0.000000     0.000000
    4     1.000000   180.000000     1.000000     0.000000     0.000000     0.000000     0.000000     0.000000
    5     1.000000    90.000000     0.000000     0.000000    -1.000000    -0.500000    -0.500000    -0.500000
    6     1.000000    90.000000     0.000000     0.000000     1.000000    -0.500000    -0.500000    -0.500000
    7     1.000000   180.000000     0.707107     0.707107     0.000000    -0.500000    -0.500000    -0.500000
    8     1.000000   180.000000     0.707107    -0.707107     0.000000    -0.500000    -0.500000    -0.500000
 
 Subroutine IBZKPT returns following result:
 ===========================================
 
 Found     40 irreducible k-points:
 
 Following reciprocal coordinates:
            Coordinates               Weight
  0.062500  0.062500  0.062500      8.000000
  0.187500  0.062500  0.062500     16.000000
  0.312500  0.062500  0.062500     16.000000
  0.437500  0.062500  0.062500     16.000000
  0.187500  0.187500  0.062500      8.000000
  0.312500  0.187500  0.062500     16.000000
  0.437500  0.187500  0.062500     16.000000
  0.312500  0.312500  0.062500      8.000000
  0.437500  0.312500  0.062500     16.000000
  0.437500  0.437500  0.062500      8.000000
  0.062500  0.062500  0.187500      8.000000
  0.187500  0.062500  0.187500     16.000000
  0.312500  0.062500  0.187500     16.000000
  0.437500  0.062500  0.187500     16.000000
  0.187500  0.187500  0.187500      8.000000
  0.312500  0.187500  0.187500     16.000000
  0.437500  0.187500  0.187500     16.000000
  0.312500  0.312500  0.187500      8.000000
  0.437500  0.312500  0.187500     16.000000
  0.437500  0.437500  0.187500      8.000000
  0.062500  0.062500  0.312500      8.000000
  0.187500  0.062500  0.312500     16.000000
  0.312500  0.062500  0.312500     16.000000
  0.437500  0.062500  0.312500     16.000000
  0.187500  0.187500  0.312500      8.000000
  0.312500  0.187500  0.312500     16.000000
  0.437500  0.187500  0.312500     16.000000
  0.312500  0.312500  0.312500      8.000000
  0.437500  0.312500  0.312500     16.000000
  0.437500  0.437500  0.312500      8.000000
  0.062500  0.062500  0.437500      8.000000
  0.187500  0.062500  0.437500     16.000000
  0.312500  0.062500  0.437500     16.000000
  0.437500  0.062500  0.437500     16.000000
  0.187500  0.187500  0.437500      8.000000
  0.312500  0.187500  0.437500     16.000000
  0.437500  0.187500  0.437500     16.000000
  0.312500  0.312500  0.437500      8.000000
  0.437500  0.312500  0.437500     16.000000
  0.437500  0.437500  0.437500      8.000000
 
 Following cartesian coordinates:
            Coordinates               Weight
  0.064725  0.064725  0.064724      8.000000
  0.194176  0.064725  0.064724     16.000000
  0.323627  0.064725  0.064724     16.000000
  0.453078  0.064725  0.064724     16.000000
  0.194176  0.194176  0.064724      8.000000
  0.323627  0.194176  0.064724     16.000000
  0.453078  0.194176  0.064724     16.000000
  0.323627  0.323627  0.064724      8.000000
  0.453078  0.323627  0.064724     16.000000
  0.453078  0.453078  0.064724      8.000000
  0.064725  0.064725  0.194171      8.000000
  0.194176  0.064725  0.194171     16.000000
  0.323627  0.064725  0.194171     16.000000
  0.453078  0.064725  0.194171     16.000000
  0.194176  0.194176  0.194171      8.000000
  0.323627  0.194176  0.194171     16.000000
  0.453078  0.194176  0.194171     16.000000
  0.323627  0.323627  0.194171      8.000000
  0.453078  0.323627  0.194171     16.000000
  0.453078  0.453078  0.194171      8.000000
  0.064725  0.064725  0.323619      8.000000
  0.194176  0.064725  0.323619     16.000000
  0.323627  0.064725  0.323619     16.000000
  0.453078  0.064725  0.323619     16.000000
  0.194176  0.194176  0.323619      8.000000
  0.323627  0.194176  0.323619     16.000000
  0.453078  0.194176  0.323619     16.000000
  0.323627  0.323627  0.323619      8.000000
  0.453078  0.323627  0.323619     16.000000
  0.453078  0.453078  0.323619      8.000000
  0.064725  0.064725  0.453067      8.000000
  0.194176  0.064725  0.453067     16.000000
  0.323627  0.064725  0.453067     16.000000
  0.453078  0.064725  0.453067     16.000000
  0.194176  0.194176  0.453067      8.000000
  0.323627  0.194176  0.453067     16.000000
  0.453078  0.194176  0.453067     16.000000
  0.323627  0.323627  0.453067      8.000000
  0.453078  0.323627  0.453067     16.000000
  0.453078  0.453078  0.453067      8.000000
 


--------------------------------------------------------------------------------------------------------




 Dimension of arrays:
   k-points           NKPTS =     40   k-points in BZ     NKDIM =     40   number of bands    NBANDS=    124
   number of dos      NEDOS =   1500   number of ions     NIONS =     16
   non local maximal  LDIM  =      6   non local SUM 2l+1 LMDIM =     18
   total plane-waves  NPLWV =  74088
   max r-space proj   IRMAX =   5712   max aug-charges    IRDMAX= 112991
   dimension x,y,z NGX =    42 NGY =   42 NGZ =   42
   dimension x,y,z NGXF=    84 NGYF=   84 NGZF=   84
   support grid    NGXF=   168 NGYF=  168 NGZF=  168
   ions per type =               8   4   4
   NGX,Y,Z   is equivalent  to a cutoff of  12.47, 12.47, 12.47 a.u.
   NGXF,Y,Z  is equivalent  to a cutoff of  24.93, 24.93, 24.93 a.u.

 SYSTEM =  NiCoMnGa                                
 POSCAR =  Heusler tetragonal                      

 Startparameter for this run:
   NWRITE =      2    write-flag & timer
   PREC   = accura    normal or accurate (medium, high low for compatibility)
   ISTART =      0    job   : 0-new  1-cont  2-samecut
   ICHARG =      2    charge: 1-file 2-atom 10-const
   ISPIN  =      2    spin polarized calculation?
   LNONCOLLINEAR =      F non collinear calculations
   LSORBIT =      F    spin-orbit coupling
   INIWAV =      1    electr: 0-lowe 1-rand  2-diag
   LASPH  =      F    aspherical Exc in radial PAW
   METAGGA=      F    non-selfconsistent MetaGGA calc.

 Electronic Relaxation 1
   ENCUT  =  500.0 eV  36.75 Ry    6.06 a.u.  10.21 10.21 10.21*2*pi/ulx,y,z
   ENINI  =  500.0     initial cutoff
   ENAUG  =  578.3 eV  augmentation charge cutoff
   NELM   =    160;   NELMIN=  2; NELMDL= -6     # of ELM steps 
   EDIFF  = 0.1E-05   stopping-criterion for ELM
   LREAL  =      T    real-space projection
   NLSPLINE    = F    spline interpolate recip. space projectors
   LCOMPAT=      F    compatible to vasp.4.4
   GGA_COMPAT  = T    GGA compatible to vasp.4.4-vasp.4.6
   LMAXPAW     = -100 max onsite density
   LMAXMIX     =    6 max onsite mixed and CHGCAR
   VOSKOWN=      0    Vosko Wilk Nusair interpolation
   ROPT   =   -0.00025  -0.00025  -0.00025
 Ionic relaxation
   EDIFFG = 0.1E-02   stopping-criterion for IOM
   NSW    =      0    number of steps for IOM
   NBLOCK =      1;   KBLOCK =      1    inner block; outer block 
   IBRION =     -1    ionic relax: 0-MD 1-quasi-New 2-CG
   NFREE  =      1    steps in history (QN), initial steepest desc. (CG)
   ISIF   =      3    stress and relaxation
   IWAVPR =     10    prediction:  0-non 1-charg 2-wave 3-comb
   ISYM   =      2    0-nonsym 1-usesym 2-fastsym
   LCORR  =      T    Harris-Foulkes like correction to forces

   POTIM  = 0.0050    time-step for ionic-motion
   TEIN   =    0.0    initial temperature
   TEBEG  =    0.0;   TEEND  =   0.0 temperature during run
   SMASS  =  -3.00    Nose mass-parameter (am)
   estimated Nose-frequenzy (Omega)   =  0.10E-29 period in steps = 0.13E+49 mass=  -0.717E-27a.u.
   SCALEE = 1.0000    scale energy and forces
   NPACO  =    256;   APACO  = 16.0  distance and # of slots for P.C.
   PSTRESS=    0.0 pullay stress

  Mass of Ions in am
   POMASS =  55.85 58.93 28.09
  Ionic Valenz
   ZVAL   =  14.00 15.00  4.00
  Atomic Wigner-Seitz radii
   RWIGS  =   1.16  1.16  1.16
  virtual crystal weights 
   VCA    =   1.00  1.00  1.00
   NELECT =     188.0000    total number of electrons
   NUPDOWN=      -1.0000    fix difference up-down

 DOS related values:
   EMIN   =  10.00;   EMAX   =-10.00  energy-range for DOS
   EFERMI =   0.00
   ISMEAR =     1;   SIGMA  =   0.10  broadening in eV -4-tet -1-fermi 0-gaus

 Electronic relaxation 2 (details)
   IALGO  =     38    algorithm
   LDIAG  =      T    sub-space diagonalisation (order eigenvalues)
   LSUBROT=      F    optimize rotation matrix (better conditioning)
   TURBO    =      0    0=normal 1=particle mesh
   IRESTART =      0    0=no restart 2=restart with 2 vectors
   NREBOOT  =      0    no. of reboots
   NMIN     =      0    reboot dimension
   EREF     =   0.00    reference energy to select bands
   IMIX   =      4    mixing-type and parameters
     AMIX     =   0.18;   BMIX     =  0.00
     AMIX_MAG =   0.26;   BMIX_MAG =  0.01
     AMIN     =   0.10
     WC   =   100.;   INIMIX=   1;  MIXPRE=   1;  MAXMIX= -45

 Intra band minimization:
   WEIMIN = 0.0000     energy-eigenvalue tresh-hold
   EBREAK =  0.20E-08  absolut break condition
   DEPER  =   0.30     relativ break condition  

   TIME   =   0.40     timestep for ELM

  volume/ion in A,a.u.               =      10.98        74.09
  Fermi-wavevector in a.u.,A,eV,Ry     =   1.674521  3.164386 38.151017  2.804021
  Thomas-Fermi vector in A             =   2.759302
 
 Write flags
   LWAVE        =      F    write WAVECAR
   LDOWNSAMPLE  =      F    k-point downsampling of WAVECAR
   LCHARG       =      T    write CHGCAR
   LVTOT        =      F    write LOCPOT, total local potential
   LVHAR        =      F    write LOCPOT, Hartree potential only
   LELF         =      F    write electronic localiz. function (ELF)
   LORBIT       =     10    0 simple, 1 ext, 2 COOP (PROOUT), +10 PAW based schemes


 Dipole corrections
   LMONO  =      F    monopole corrections only (constant potential shift)
   LDIPOL =      F    correct potential (dipole corrections)
   IDIPOL =      0    1-x, 2-y, 3-z, 4-all directions 
   EPSILON=  1.0000000 bulk dielectric constant

 Exchange correlation treatment:
   GGA     =    --    GGA type
   LEXCH   =     8    internal setting for exchange type
   VOSKOWN=      0    Vosko Wilk Nusair interpolation
   LHFCALC =     F    Hartree Fock is set to
   LHFONE  =     F    Hartree Fock one center treatment
   AEXX    =    0.0000 exact exchange contribution

 Linear response parameters
   LEPSILON=     F    determine dielectric tensor
   LRPA    =     F    only Hartree local field effects (RPA)
   LNABLA  =     F    use nabla operator in PAW spheres
   LVEL    =     F    velocity operator in full k-point grid
   LINTERFAST=   F  fast interpolation
   KINTER  =     0    interpolate to denser k-point grid
   CSHIFT  =0.1000    complex shift for real part using Kramers Kronig
   OMEGAMAX=  -1.0    maximum frequency
   DEG_THRESHOLD= 0.2000000E-02 threshold for treating states as degnerate
   RTIME   =   -0.100 relaxation time in fs
  (WPLASMAI=    0.000 imaginary part of plasma frequency in eV, 0.658/RTIME)
   DFIELD  = 0.0000000 0.0000000 0.0000000 field for delta impulse in time
 
 Orbital magnetization related:
   ORBITALMAG=     F  switch on orbital magnetization
   LCHIMAG   =     F  perturbation theory with respect to B field
   DQ        =  0.001000  dq finite difference perturbation B field
   LLRAUG    =     F  two centre corrections for induced B field



--------------------------------------------------------------------------------------------------------


 Static calculation
 charge density and potential will be updated during run
 spin polarized calculation
 Variant of blocked Davidson
 Davidson routine will perform the subspace rotation
 perform sub-space diagonalisation
    after iterative eigenvector-optimisation
 modified Broyden-mixing scheme, WC =      100.0
 initial mixing is a Kerker type mixing with AMIX =  0.1800 and BMIX =      0.0025
 Hartree-type preconditioning will be used
 using additional bands           30
 real space projection scheme for non local part
 use partial core corrections
 calculate Harris-corrections to forces 
   (improved forces if not selfconsistent)
 use gradient corrections 
 use of overlap-Matrix (Vanderbilt PP)
 Methfessel and Paxton  Order N= 1 SIGMA  =   0.10


--------------------------------------------------------------------------------------------------------


  energy-cutoff  :      500.00
  volume of cell :      175.68
      direct lattice vectors                 reciprocal lattice vectors
     5.600584137  0.000000000  0.000000000     0.178552804  0.000000000  0.000000000
     0.000000000  5.600584137  0.000000000     0.000000000  0.178552804  0.000000000
     0.000000000  0.000000000  5.600720157     0.000000000  0.000000000  0.178548467

  length of vectors
     5.600584137  5.600584137  5.600720157     0.178552804  0.178552804  0.178548467


 
 k-points in units of 2pi/SCALE and weight: Ni7CoMn5CrSn2                           
   0.06472539  0.06472539  0.06472382       0.016
   0.19417617  0.06472539  0.06472382       0.031
   0.32362696  0.06472539  0.06472382       0.031
   0.45307774  0.06472539  0.06472382       0.031
   0.19417617  0.19417617  0.06472382       0.016
   0.32362696  0.19417617  0.06472382       0.031
   0.45307774  0.19417617  0.06472382       0.031
   0.32362696  0.32362696  0.06472382       0.016
   0.45307774  0.32362696  0.06472382       0.031
   0.45307774  0.45307774  0.06472382       0.016
   0.06472539  0.06472539  0.19417146       0.016
   0.19417617  0.06472539  0.19417146       0.031
   0.32362696  0.06472539  0.19417146       0.031
   0.45307774  0.06472539  0.19417146       0.031
   0.19417617  0.19417617  0.19417146       0.016
   0.32362696  0.19417617  0.19417146       0.031
   0.45307774  0.19417617  0.19417146       0.031
   0.32362696  0.32362696  0.19417146       0.016
   0.45307774  0.32362696  0.19417146       0.031
   0.45307774  0.45307774  0.19417146       0.016
   0.06472539  0.06472539  0.32361910       0.016
   0.19417617  0.06472539  0.32361910       0.031
   0.32362696  0.06472539  0.32361910       0.031
   0.45307774  0.06472539  0.32361910       0.031
   0.19417617  0.19417617  0.32361910       0.016
   0.32362696  0.19417617  0.32361910       0.031
   0.45307774  0.19417617  0.32361910       0.031
   0.32362696  0.32362696  0.32361910       0.016
   0.45307774  0.32362696  0.32361910       0.031
   0.45307774  0.45307774  0.32361910       0.016
   0.06472539  0.06472539  0.45306674       0.016
   0.19417617  0.06472539  0.45306674       0.031
   0.32362696  0.06472539  0.45306674       0.031
   0.45307774  0.06472539  0.45306674       0.031
   0.19417617  0.19417617  0.45306674       0.016
   0.32362696  0.19417617  0.45306674       0.031
   0.45307774  0.19417617  0.45306674       0.031
   0.32362696  0.32362696  0.45306674       0.016
   0.45307774  0.32362696  0.45306674       0.031
   0.45307774  0.45307774  0.45306674       0.016
 
 k-points in reciprocal lattice and weights: Ni7CoMn5CrSn2                           
   0.06250000  0.06250000  0.06250000       0.016
   0.18750000  0.06250000  0.06250000       0.031
   0.31250000  0.06250000  0.06250000       0.031
   0.43750000  0.06250000  0.06250000       0.031
   0.18750000  0.18750000  0.06250000       0.016
   0.31250000  0.18750000  0.06250000       0.031
   0.43750000  0.18750000  0.06250000       0.031
   0.31250000  0.31250000  0.06250000       0.016
   0.43750000  0.31250000  0.06250000       0.031
   0.43750000  0.43750000  0.06250000       0.016
   0.06250000  0.06250000  0.18750000       0.016
   0.18750000  0.06250000  0.18750000       0.031
   0.31250000  0.06250000  0.18750000       0.031
   0.43750000  0.06250000  0.18750000       0.031
   0.18750000  0.18750000  0.18750000       0.016
   0.31250000  0.18750000  0.18750000       0.031
   0.43750000  0.18750000  0.18750000       0.031
   0.31250000  0.31250000  0.18750000       0.016
   0.43750000  0.31250000  0.18750000       0.031
   0.43750000  0.43750000  0.18750000       0.016
   0.06250000  0.06250000  0.31250000       0.016
   0.18750000  0.06250000  0.31250000       0.031
   0.31250000  0.06250000  0.31250000       0.031
   0.43750000  0.06250000  0.31250000       0.031
   0.18750000  0.18750000  0.31250000       0.016
   0.31250000  0.18750000  0.31250000       0.031
   0.43750000  0.18750000  0.31250000       0.031
   0.31250000  0.31250000  0.31250000       0.016
   0.43750000  0.31250000  0.31250000       0.031
   0.43750000  0.43750000  0.31250000       0.016
   0.06250000  0.06250000  0.43750000       0.016
   0.18750000  0.06250000  0.43750000       0.031
   0.31250000  0.06250000  0.43750000       0.031
   0.43750000  0.06250000  0.43750000       0.031
   0.18750000  0.18750000  0.43750000       0.016
   0.31250000  0.18750000  0.43750000       0.031
   0.43750000  0.18750000  0.43750000       0.031
   0.31250000  0.31250000  0.43750000       0.016
   0.43750000  0.31250000  0.43750000       0.031
   0.43750000  0.43750000  0.43750000       0.016
 
 position of ions in fractional coordinates (direct lattice) 
   0.50000000  0.00000000  0.50000000
   0.50000000  0.00000000  0.00000000
   0.00000000  0.00000000  0.50000000
   0.50000000  0.50000000  0.00000000
   0.25253948  0.24746052  0.75000000
   0.25253948  0.75253948  0.25000000
   0.74746052  0.24746052  0.25000000
   0.74746052  0.75253948  0.75000000
   0.00000000  0.50000000  0.50000000
   0.00000000  0.00000000  0.00000000
   0.00000000  0.50000000  0.00000000
   0.50000000  0.50000000  0.50000000
   0.24940219  0.25059781  0.25000000
   0.75059781  0.25059781  0.75000000
   0.24940219  0.74940219  0.75000000
   0.75059781  0.74940219  0.25000000
 
 position of ions in cartesian coordinates  (Angst):
   2.80029207  0.00000000  2.80036008
   2.80029207  0.00000000  0.00000000
   0.00000000  0.00000000  2.80036008
   2.80029207  2.80029207  0.00000000
   1.41436861  1.38592346  4.20054012
   1.41436861  4.21466068  1.40018004
   4.18621553  1.38592346  1.40018004
   4.18621553  4.21466068  4.20054012
   0.00000000  2.80029207  2.80036008
   0.00000000  0.00000000  0.00000000
   0.00000000  2.80029207  0.00000000
   2.80029207  2.80029207  2.80036008
   1.39679797  1.40349410  1.40018004
   4.20378616  1.40349410  4.20054012
   1.39679797  4.19709004  4.20054012
   4.20378616  4.19709004  1.40018004
 


--------------------------------------------------------------------------------------------------------


 k-point   1 :   0.0625 0.0625 0.0625  plane waves:    4481
 k-point   2 :   0.1875 0.0625 0.0625  plane waves:    4468
 k-point   3 :   0.3125 0.0625 0.0625  plane waves:    4465
 k-point   4 :   0.4375 0.0625 0.0625  plane waves:    4452
 k-point   5 :   0.1875 0.1875 0.0625  plane waves:    4459
 k-point   6 :   0.3125 0.1875 0.0625  plane waves:    4465
 k-point   7 :   0.4375 0.1875 0.0625  plane waves:    4453
 k-point   8 :   0.3125 0.3125 0.0625  plane waves:    4462
 k-point   9 :   0.4375 0.3125 0.0625  plane waves:    4449
 k-point  10 :   0.4375 0.4375 0.0625  plane waves:    4466
 k-point  11 :   0.0625 0.0625 0.1875  plane waves:    4468
 k-point  12 :   0.1875 0.0625 0.1875  plane waves:    4459
 k-point  13 :   0.3125 0.0625 0.1875  plane waves:    4465
 k-point  14 :   0.4375 0.0625 0.1875  plane waves:    4453
 k-point  15 :   0.1875 0.1875 0.1875  plane waves:    4458
 k-point  16 :   0.3125 0.1875 0.1875  plane waves:    4451
 k-point  17 :   0.4375 0.1875 0.1875  plane waves:    4452
 k-point  18 :   0.3125 0.3125 0.1875  plane waves:    4453
 k-point  19 :   0.4375 0.3125 0.1875  plane waves:    4464
 k-point  20 :   0.4375 0.4375 0.1875  plane waves:    4467
 k-point  21 :   0.0625 0.0625 0.3125  plane waves:    4465
 k-point  22 :   0.1875 0.0625 0.3125  plane waves:    4465
 k-point  23 :   0.3125 0.0625 0.3125  plane waves:    4462
 k-point  24 :   0.4375 0.0625 0.3125  plane waves:    4449
 k-point  25 :   0.1875 0.1875 0.3125  plane waves:    4451
 k-point  26 :   0.3125 0.1875 0.3125  plane waves:    4453
 k-point  27 :   0.4375 0.1875 0.3125  plane waves:    4464
 k-point  28 :   0.3125 0.3125 0.3125  plane waves:    4440
 k-point  29 :   0.4375 0.3125 0.3125  plane waves:    4481
 k-point  30 :   0.4375 0.4375 0.3125  plane waves:    4470
 k-point  31 :   0.0625 0.0625 0.4375  plane waves:    4452
 k-point  32 :   0.1875 0.0625 0.4375  plane waves:    4453
 k-point  33 :   0.3125 0.0625 0.4375  plane waves:    4449
 k-point  34 :   0.4375 0.0625 0.4375  plane waves:    4466
 k-point  35 :   0.1875 0.1875 0.4375  plane waves:    4452
 k-point  36 :   0.3125 0.1875 0.4375  plane waves:    4464
 k-point  37 :   0.4375 0.1875 0.4375  plane waves:    4467
 k-point  38 :   0.3125 0.3125 0.4375  plane waves:    4481
 k-point  39 :   0.4375 0.3125 0.4375  plane waves:    4470
 k-point  40 :   0.4375 0.4375 0.4375  plane waves:    4470

 maximum and minimum number of plane-waves per node :       235      203

 maximum number of plane-waves:      4481
 maximum index in each direction: 
   IXMAX=   10   IYMAX=   10   IZMAX=   10
   IXMIN=  -10   IYMIN=  -10   IZMIN=  -10


 real space projection operators:
  total allocation   :       9991.75 KBytes
  max/ min on nodes  :        705.56        346.38


 parallel 3D FFT for wavefunctions:
    minimum data exchange during FFTs selected (reduces bandwidth)
 parallel 3D FFT for charge:
    minimum data exchange during FFTs selected (reduces bandwidth)


 total amount of memory used by VASP MPI-rank0    48185. kBytes
=======================================================================

   base      :      30000. kBytes
   nonlr-proj:       2423. kBytes
   fftplans  :       3136. kBytes
   grid      :       2596. kBytes
   one-center:         31. kBytes
   wavefun   :       9999. kBytes
 
     INWAV:  cpu time    0.0000: real time    0.0001
 Broyden mixing: mesh for mixing (old mesh)
   NGX = 21   NGY = 21   NGZ = 21
  (NGX  = 84   NGY  = 84   NGZ  = 84)
  gives a total of   9261 points

 initial charge density was supplied:
 charge density of overlapping atoms calculated
 number of electron     188.0000000 magnetization      23.2000000
 keeping initial charge density in first step


--------------------------------------------------------------------------------------------------------


 Maximum index for non-local projection operator          730
 Maximum index for augmentation-charges         5230 (set IRDMAX)


--------------------------------------------------------------------------------------------------------


 First call to EWALD:  gamma=   0.316
 Maximum number of real-space cells 3x 3x 3
 Maximum number of reciprocal cells 3x 3x 3

    FEWALD:  cpu time    0.0040: real time    0.0038


--------------------------------------- Iteration      1(   1)  ---------------------------------------


    POTLOK:  cpu time    0.1400: real time    0.1670
    SETDIJ:  cpu time    0.0800: real time    0.0831
     EDDAV:  cpu time    9.5086: real time    9.5351
       DOS:  cpu time    0.0080: real time    0.0098
    --------------------------------------------
      LOOP:  cpu time    9.7366: real time    9.7951

 eigenvalue-minimisations  : 20144
 total energy-change (2. order) : 0.2710175E+04  (-0.9180102E+04)
 number of electron     188.0000000 magnetization      23.2000000
 augmentation part      188.0000000 magnetization      23.2000000

 Free energy of the ion-electron system (eV)
  ---------------------------------------------------
  alpha Z        PSCENC =      1253.36329901
  Ewald energy   TEWEN  =    -22209.25052895
  -Hartree energ DENC   =     -8642.24174529
  -exchange      EXHF   =         0.00000000
  -V(xc)+E(xc)   XCENC  =       909.37863065
  PAW double counting   =     25735.45600997   -27176.27888444
  entropy T*S    EENTRO =        -0.00009845
  eigenvalues    EBANDS =       975.63759135
  atomic energy  EATOM  =     31864.11063514
  Solvation  Ediel_sol  =         0.00000000
  ---------------------------------------------------
  free energy    TOTEN  =      2710.17490898 eV

  energy without entropy =     2710.17500743  energy(sigma->0) =     2710.17494180


--------------------------------------------------------------------------------------------------------




--------------------------------------- Iteration      1(   2)  ---------------------------------------


     EDDAV:  cpu time    9.2646: real time    9.2889
       DOS:  cpu time    0.0120: real time    0.0120
    --------------------------------------------
      LOOP:  cpu time    9.2766: real time    9.3009

 eigenvalue-minimisations  : 19840
 total energy-change (2. order) :-0.2472457E+04  (-0.2366619E+04)
 number of electron     188.0000000 magnetization      23.2000000
 augmentation part      188.0000000 magnetization      23.2000000

 Free energy of the ion-electron system (eV)
  ---------------------------------------------------
  alpha Z        PSCENC =      1253.36329901
  Ewald energy   TEWEN  =    -22209.25052895
  -Hartree energ DENC   =     -8642.24174529
  -exchange      EXHF   =         0.00000000
  -V(xc)+E(xc)   XCENC  =       909.37863065
  PAW double counting   =     25735.45600997   -27176.27888444
  entropy T*S    EENTRO =        -0.00135334
  eigenvalues    EBANDS =     -1496.81816032
  atomic energy  EATOM  =     31864.11063514
  Solvation  Ediel_sol  =         0.00000000
  ---------------------------------------------------
  free energy    TOTEN  =       237.71790242 eV

  energy without entropy =      237.71925576  energy(sigma->0) =      237.71835353


--------------------------------------------------------------------------------------------------------




--------------------------------------- Iteration      1(   3)  ---------------------------------------


     EDDAV:  cpu time    9.4246: real time    9.4555
       DOS:  cpu time    0.0160: real time    0.0128
    --------------------------------------------
      LOOP:  cpu time    9.4406: real time    9.4683

 eigenvalue-minimisations  : 19992
 total energy-change (2. order) :-0.3529217E+03  (-0.3118253E+03)
 number of electron     188.0000000 magnetization      23.2000000
 augmentation part      188.0000000 magnetization      23.2000000

 Free energy of the ion-electron system (eV)
  ---------------------------------------------------
  alpha Z        PSCENC =      1253.36329901
  Ewald energy   TEWEN  =    -22209.25052895
  -Hartree energ DENC   =     -8642.24174529
  -exchange      EXHF   =         0.00000000
  -V(xc)+E(xc)   XCENC  =       909.37863065
  PAW double counting   =     25735.45600997   -27176.27888444
  entropy T*S    EENTRO =        -0.00043276
  eigenvalues    EBANDS =     -1849.74082699
  atomic energy  EATOM  =     31864.11063514
  Solvation  Ediel_sol  =         0.00000000
  ---------------------------------------------------
  free energy    TOTEN  =      -115.20384367 eV

  energy without entropy =     -115.20341091  energy(sigma->0) =     -115.20369942


--------------------------------------------------------------------------------------------------------




--------------------------------------- Iteration      1(   4)  ---------------------------------------


     EDDAV:  cpu time    9.8686: real time    9.8984
       DOS:  cpu time    0.0120: real time    0.0124
    --------------------------------------------
      LOOP:  cpu time    9.8806: real time    9.9107

 eigenvalue-minimisations  : 21504
 total energy-change (2. order) :-0.2080201E+02  (-0.2034266E+02)
 number of electron     188.0000000 magnetization      23.2000000
 augmentation part      188.0000000 magnetization      23.2000000

 Free energy of the ion-electron system (eV)
  ---------------------------------------------------
  alpha Z        PSCENC =      1253.36329901
  Ewald energy   TEWEN  =    -22209.25052895
  -Hartree energ DENC   =     -8642.24174529
  -exchange      EXHF   =         0.00000000
  -V(xc)+E(xc)   XCENC  =       909.37863065
  PAW double counting   =     25735.45600997   -27176.27888444
  entropy T*S    EENTRO =         0.00053779
  eigenvalues    EBANDS =     -1870.54380880
  atomic energy  EATOM  =     31864.11063514
  Solvation  Ediel_sol  =         0.00000000
  ---------------------------------------------------
  free energy    TOTEN  =      -136.00585493 eV

  energy without entropy =     -136.00639272  energy(sigma->0) =     -136.00603420


--------------------------------------------------------------------------------------------------------




--------------------------------------- Iteration      1(   5)  ---------------------------------------


     EDDAV:  cpu time    9.9566: real time    9.9852
       DOS:  cpu time    0.0120: real time    0.0133
    --------------------------------------------
      LOOP:  cpu time    9.9686: real time    9.9984

 eigenvalue-minimisations  : 21780
 total energy-change (2. order) :-0.4323695E+00  (-0.4311025E+00)
 number of electron     188.0000000 magnetization      23.2000000
 augmentation part      188.0000000 magnetization      23.2000000

 Free energy of the ion-electron system (eV)
  ---------------------------------------------------
  alpha Z        PSCENC =      1253.36329901
  Ewald energy   TEWEN  =    -22209.25052895
  -Hartree energ DENC   =     -8642.24174529
  -exchange      EXHF   =         0.00000000
  -V(xc)+E(xc)   XCENC  =       909.37863065
  PAW double counting   =     25735.45600997   -27176.27888444
  entropy T*S    EENTRO =         0.00060336
  eigenvalues    EBANDS =     -1870.97624383
  atomic energy  EATOM  =     31864.11063514
  Solvation  Ediel_sol  =         0.00000000
  ---------------------------------------------------
  free energy    TOTEN  =      -136.43822439 eV

  energy without entropy =     -136.43882775  energy(sigma->0) =     -136.43842551


--------------------------------------------------------------------------------------------------------




--------------------------------------- Iteration      1(   6)  ---------------------------------------


     EDDAV:  cpu time    9.8366: real time    9.8667
       DOS:  cpu time    0.0160: real time    0.0132
    CHARGE:  cpu time    0.3240: real time    0.3255
    MIXING:  cpu time    0.0000: real time    0.0011
    --------------------------------------------
      LOOP:  cpu time   10.1766: real time   10.2066

 eigenvalue-minimisations  : 21440
 total energy-change (2. order) :-0.1263215E-01  (-0.1262955E-01)
 number of electron     188.0000007 magnetization      22.4539903
 augmentation part       98.7612987 magnetization      17.1849759

 Broyden mixing:
  rms(total) = 0.45375E+01    rms(broyden)= 0.45368E+01
  rms(prec ) = 0.65856E+01
  weight for this iteration     100.00

 Free energy of the ion-electron system (eV)
  ---------------------------------------------------
  alpha Z        PSCENC =      1253.36329901
  Ewald energy   TEWEN  =    -22209.25052895
  -Hartree energ DENC   =     -8642.24174529
  -exchange      EXHF   =         0.00000000
  -V(xc)+E(xc)   XCENC  =       909.37863065
  PAW double counting   =     25735.45600997   -27176.27888444
  entropy T*S    EENTRO =         0.00060498
  eigenvalues    EBANDS =     -1870.98887760
  atomic energy  EATOM  =     31864.11063514
  Solvation  Ediel_sol  =         0.00000000
  ---------------------------------------------------
  free energy    TOTEN  =      -136.45085654 eV

  energy without entropy =     -136.45146152  energy(sigma->0) =     -136.45105820


--------------------------------------------------------------------------------------------------------




--------------------------------------- Iteration      1(   7)  ---------------------------------------


    POTLOK:  cpu time    0.0600: real time    0.0613
    SETDIJ:  cpu time    0.0760: real time    0.0733
     EDDAV:  cpu time    9.8406: real time    9.8723
       DOS:  cpu time    0.0120: real time    0.0129
    CHARGE:  cpu time    0.3240: real time    0.3232
    MIXING:  cpu time    0.0000: real time    0.0011
    --------------------------------------------
      LOOP:  cpu time   10.3126: real time   10.3441

 eigenvalue-minimisations  : 21276
 total energy-change (2. order) : 0.1318572E+02  (-0.4793838E+01)
 number of electron     188.0000008 magnetization      21.8908334
 augmentation part      105.2367304 magnetization      17.2437444

 Broyden mixing:
  rms(total) = 0.31344E+01    rms(broyden)= 0.31342E+01
  rms(prec ) = 0.53378E+01
  weight for this iteration     100.00

 eigenvalues of (default mixing * dielectric matrix)
  average eigenvalue GAMMA=   0.8001
  0.8001

 Free energy of the ion-electron system (eV)
  ---------------------------------------------------
  alpha Z        PSCENC =      1253.36329901
  Ewald energy   TEWEN  =    -22209.25052895
  -Hartree energ DENC   =     -8342.92497171
  -exchange      EXHF   =         0.00000000
  -V(xc)+E(xc)   XCENC  =       897.86909115
  PAW double counting   =     26224.61229570   -27635.94651538
  entropy T*S    EENTRO =        -0.00057805
  eigenvalues    EBANDS =     -2175.09785981
  atomic energy  EATOM  =     31864.11063514
  Solvation  Ediel_sol  =         0.00000000
  ---------------------------------------------------
  free energy    TOTEN  =      -123.26513290 eV

  energy without entropy =     -123.26455485  energy(sigma->0) =     -123.26494022


--------------------------------------------------------------------------------------------------------




--------------------------------------- Iteration      1(   8)  ---------------------------------------


    POTLOK:  cpu time    0.0600: real time    0.0601
    SETDIJ:  cpu time    0.0720: real time    0.0735
     EDDAV:  cpu time   10.2446: real time   10.2773
       DOS:  cpu time    0.0160: real time    0.0126
    CHARGE:  cpu time    0.3200: real time    0.3239
    MIXING:  cpu time    0.0040: real time    0.0010
    --------------------------------------------
      LOOP:  cpu time   10.7167: real time   10.7484

 eigenvalue-minimisations  : 22656
 total energy-change (2. order) :-0.6929154E+01  (-0.3349570E+01)
 number of electron     188.0000008 magnetization      21.1793550
 augmentation part      105.4455689 magnetization      16.8084078

 Broyden mixing:
  rms(total) = 0.44351E+01    rms(broyden)= 0.44349E+01
  rms(prec ) = 0.84828E+01
  weight for this iteration     100.00

 eigenvalues of (default mixing * dielectric matrix)
  average eigenvalue GAMMA=   0.7937
  1.3628  0.2247

 Free energy of the ion-electron system (eV)
  ---------------------------------------------------
  alpha Z        PSCENC =      1253.36329901
  Ewald energy   TEWEN  =    -22209.25052895
  -Hartree energ DENC   =     -8315.61549830
  -exchange      EXHF   =         0.00000000
  -V(xc)+E(xc)   XCENC  =       896.52125444
  PAW double counting   =     26638.07499150   -28054.77225488
  entropy T*S    EENTRO =         0.00061029
  eigenvalues    EBANDS =     -2202.62679536
  atomic energy  EATOM  =     31864.11063514
  Solvation  Ediel_sol  =         0.00000000
  ---------------------------------------------------
  free energy    TOTEN  =      -130.19428712 eV

  energy without entropy =     -130.19489741  energy(sigma->0) =     -130.19449055


--------------------------------------------------------------------------------------------------------




--------------------------------------- Iteration      1(   9)  ---------------------------------------


    POTLOK:  cpu time    0.0600: real time    0.0599
    SETDIJ:  cpu time    0.0720: real time    0.0738
     EDDAV:  cpu time   10.3726: real time   10.4067
       DOS:  cpu time    0.0160: real time    0.0130
    CHARGE:  cpu time    0.3160: real time    0.3192
    MIXING:  cpu time    0.0000: real time    0.0010
    --------------------------------------------
      LOOP:  cpu time   10.8407: real time   10.8736

 eigenvalue-minimisations  : 23104
 total energy-change (2. order) : 0.7166378E+01  (-0.1332988E+01)
 number of electron     188.0000008 magnetization      21.0011226
 augmentation part      106.5591278 magnetization      16.5060746

 Broyden mixing:
  rms(total) = 0.23246E+01    rms(broyden)= 0.23245E+01
  rms(prec ) = 0.37770E+01
  weight for this iteration     100.00

 eigenvalues of (default mixing * dielectric matrix)
  average eigenvalue GAMMA=   0.6950
  1.5114  0.2868  0.2868

 Free energy of the ion-electron system (eV)
  ---------------------------------------------------
  alpha Z        PSCENC =      1253.36329901
  Ewald energy   TEWEN  =    -22209.25052895
  -Hartree energ DENC   =     -8273.64915437
  -exchange      EXHF   =         0.00000000
  -V(xc)+E(xc)   XCENC  =       894.77367345
  PAW double counting   =     27199.84822219   -28617.70585487
  entropy T*S    EENTRO =         0.00178715
  eigenvalues    EBANDS =     -2234.51998770
  atomic energy  EATOM  =     31864.11063514
  Solvation  Ediel_sol  =         0.00000000
  ---------------------------------------------------
  free energy    TOTEN  =      -123.02790896 eV

  energy without entropy =     -123.02969612  energy(sigma->0) =     -123.02850468


--------------------------------------------------------------------------------------------------------




--------------------------------------- Iteration      1(  10)  ---------------------------------------


    POTLOK:  cpu time    0.0640: real time    0.0604
    SETDIJ:  cpu time    0.0720: real time    0.0727
     EDDAV:  cpu time   10.4007: real time   10.4351
       DOS:  cpu time    0.0160: real time    0.0134
    CHARGE:  cpu time    0.3200: real time    0.3219
    MIXING:  cpu time    0.0000: real time    0.0011
    --------------------------------------------
      LOOP:  cpu time   10.8687: real time   10.9045

 eigenvalue-minimisations  : 23128
 total energy-change (2. order) : 0.1573128E+01  (-0.3437029E+00)
 number of electron     188.0000008 magnetization      20.5268191
 augmentation part      106.3771977 magnetization      16.2128608

 Broyden mixing:
  rms(total) = 0.15568E+01    rms(broyden)= 0.15567E+01
  rms(prec ) = 0.19355E+01
  weight for this iteration     100.00

 eigenvalues of (default mixing * dielectric matrix)
  average eigenvalue GAMMA=   0.8922
  2.1555  0.8747  0.3116  0.2269

 Free energy of the ion-electron system (eV)
  ---------------------------------------------------
  alpha Z        PSCENC =      1253.36329901
  Ewald energy   TEWEN  =    -22209.25052895
  -Hartree energ DENC   =     -8269.56269420
  -exchange      EXHF   =         0.00000000
  -V(xc)+E(xc)   XCENC  =       894.61689888
  PAW double counting   =     27428.05219749   -28849.31456230
  entropy T*S    EENTRO =        -0.00045904
  eigenvalues    EBANDS =     -2233.46956743
  atomic energy  EATOM  =     31864.11063514
  Solvation  Ediel_sol  =         0.00000000
  ---------------------------------------------------
  free energy    TOTEN  =      -121.45478140 eV

  energy without entropy =     -121.45432236  energy(sigma->0) =     -121.45462839


--------------------------------------------------------------------------------------------------------




--------------------------------------- Iteration      1(  11)  ---------------------------------------


    POTLOK:  cpu time    0.0600: real time    0.0602
    SETDIJ:  cpu time    0.0720: real time    0.0725
     EDDAV:  cpu time   10.2486: real time   10.2791
       DOS:  cpu time    0.0120: real time    0.0134
    CHARGE:  cpu time    0.3240: real time    0.3220
    MIXING:  cpu time    0.0000: real time    0.0011
    --------------------------------------------
      LOOP:  cpu time   10.7167: real time   10.7484

 eigenvalue-minimisations  : 22648
 total energy-change (2. order) :-0.2147549E+00  (-0.1557049E+00)
 number of electron     188.0000008 magnetization      20.1244727
 augmentation part      106.2164807 magnetization      15.9802933

 Broyden mixing:
  rms(total) = 0.12097E+01    rms(broyden)= 0.12096E+01
  rms(prec ) = 0.15868E+01
  weight for this iteration     100.00

 eigenvalues of (default mixing * dielectric matrix)
  average eigenvalue GAMMA=   1.0438
  3.1341  0.9811  0.5349  0.3390  0.2301

 Free energy of the ion-electron system (eV)
  ---------------------------------------------------
  alpha Z        PSCENC =      1253.36329901
  Ewald energy   TEWEN  =    -22209.25052895
  -Hartree energ DENC   =     -8257.28025029
  -exchange      EXHF   =         0.00000000
  -V(xc)+E(xc)   XCENC  =       894.14682261
  PAW double counting   =     28298.97735923   -29730.69188503
  entropy T*S    EENTRO =         0.00243086
  eigenvalues    EBANDS =     -2235.04741893
  atomic energy  EATOM  =     31864.11063514
  Solvation  Ediel_sol  =         0.00000000
  ---------------------------------------------------
  free energy    TOTEN  =      -121.66953635 eV

  energy without entropy =     -121.67196721  energy(sigma->0) =     -121.67034663


--------------------------------------------------------------------------------------------------------




--------------------------------------- Iteration      1(  12)  ---------------------------------------


    POTLOK:  cpu time    0.0600: real time    0.0600
    SETDIJ:  cpu time    0.0720: real time    0.0734
     EDDAV:  cpu time   10.2286: real time   10.2576
       DOS:  cpu time    0.0120: real time    0.0128
    CHARGE:  cpu time    0.3200: real time    0.3221
    MIXING:  cpu time    0.0000: real time    0.0012
    --------------------------------------------
      LOOP:  cpu time   10.6927: real time   10.7271

 eigenvalue-minimisations  : 22540
 total energy-change (2. order) :-0.7489416E-01  (-0.9686960E-01)
 number of electron     188.0000008 magnetization      19.5341394
 augmentation part      106.3226876 magnetization      15.3765513

 Broyden mixing:
  rms(total) = 0.91011E+00    rms(broyden)= 0.91008E+00
  rms(prec ) = 0.13694E+01
  weight for this iteration     100.00

 eigenvalues of (default mixing * dielectric matrix)
  average eigenvalue GAMMA=   1.3296
  5.0967  1.0110  1.0110  0.2283  0.2898  0.3406

 Free energy of the ion-electron system (eV)
  ---------------------------------------------------
  alpha Z        PSCENC =      1253.36329901
  Ewald energy   TEWEN  =    -22209.25052895
  -Hartree energ DENC   =     -8243.97853822
  -exchange      EXHF   =         0.00000000
  -V(xc)+E(xc)   XCENC  =       893.65206505
  PAW double counting   =     29065.43551245   -30504.64623078
  entropy T*S    EENTRO =         0.00593808
  eigenvalues    EBANDS =     -2240.43658228
  atomic energy  EATOM  =     31864.11063514
  Solvation  Ediel_sol  =         0.00000000
  ---------------------------------------------------
  free energy    TOTEN  =      -121.74443051 eV

  energy without entropy =     -121.75036859  energy(sigma->0) =     -121.74640987


--------------------------------------------------------------------------------------------------------




--------------------------------------- Iteration      1(  13)  ---------------------------------------


    POTLOK:  cpu time    0.0600: real time    0.0604
    SETDIJ:  cpu time    0.0760: real time    0.0730
     EDDAV:  cpu time   10.2046: real time   10.2359
       DOS:  cpu time    0.0120: real time    0.0125
    CHARGE:  cpu time    0.3240: real time    0.3241
    MIXING:  cpu time    0.0000: real time    0.0012
    --------------------------------------------
      LOOP:  cpu time   10.6767: real time   10.7070

 eigenvalue-minimisations  : 22552
 total energy-change (2. order) : 0.3849299E-01  (-0.8861602E-01)
 number of electron     188.0000008 magnetization      19.5438963
 augmentation part      106.3520962 magnetization      15.5035395

 Broyden mixing:
  rms(total) = 0.43321E+00    rms(broyden)= 0.43314E+00
  rms(prec ) = 0.72021E+00
  weight for this iteration     100.00

 eigenvalues of (default mixing * dielectric matrix)
  average eigenvalue GAMMA=   1.2030
  5.1452  1.0358  1.0358  0.3513  0.3513  0.2285  0.2729

 Free energy of the ion-electron system (eV)
  ---------------------------------------------------
  alpha Z        PSCENC =      1253.36329901
  Ewald energy   TEWEN  =    -22209.25052895
  -Hartree energ DENC   =     -8224.02731285
  -exchange      EXHF   =         0.00000000
  -V(xc)+E(xc)   XCENC  =       893.03204944
  PAW double counting   =     30335.48746508   -31788.51318721
  entropy T*S    EENTRO =         0.00044923
  eigenvalues    EBANDS =     -2245.90880639
  atomic energy  EATOM  =     31864.11063514
  Solvation  Ediel_sol  =         0.00000000
  ---------------------------------------------------
  free energy    TOTEN  =      -121.70593752 eV

  energy without entropy =     -121.70638675  energy(sigma->0) =     -121.70608726


--------------------------------------------------------------------------------------------------------




--------------------------------------- Iteration      1(  14)  ---------------------------------------


    POTLOK:  cpu time    0.0600: real time    0.0597
    SETDIJ:  cpu time    0.0720: real time    0.0735
     EDDAV:  cpu time   10.2326: real time   10.2617
       DOS:  cpu time    0.0120: real time    0.0124
    CHARGE:  cpu time    0.3240: real time    0.3242
    MIXING:  cpu time    0.0000: real time    0.0012
    --------------------------------------------
      LOOP:  cpu time   10.7007: real time   10.7327

 eigenvalue-minimisations  : 22556
 total energy-change (2. order) : 0.4564997E-01  (-0.1234146E-01)
 number of electron     188.0000008 magnetization      19.7189720
 augmentation part      106.3591116 magnetization      15.7115645

 Broyden mixing:
  rms(total) = 0.30508E+00    rms(broyden)= 0.30507E+00
  rms(prec ) = 0.37638E+00
  weight for this iteration     100.00

 eigenvalues of (default mixing * dielectric matrix)
  average eigenvalue GAMMA=   1.2112
  5.1953  1.2990  1.2990  0.7412  0.3710  0.2271  0.2783  0.2783

 Free energy of the ion-electron system (eV)
  ---------------------------------------------------
  alpha Z        PSCENC =      1253.36329901
  Ewald energy   TEWEN  =    -22209.25052895
  -Hartree energ DENC   =     -8222.86781683
  -exchange      EXHF   =         0.00000000
  -V(xc)+E(xc)   XCENC  =       893.03105177
  PAW double counting   =     30392.35358216   -31846.22617931
  entropy T*S    EENTRO =         0.00048841
  eigenvalues    EBANDS =     -2246.17481894
  atomic energy  EATOM  =     31864.11063514
  Solvation  Ediel_sol  =         0.00000000
  ---------------------------------------------------
  free energy    TOTEN  =      -121.66028755 eV

  energy without entropy =     -121.66077596  energy(sigma->0) =     -121.66045036


--------------------------------------------------------------------------------------------------------




--------------------------------------- Iteration      1(  15)  ---------------------------------------


    POTLOK:  cpu time    0.0600: real time    0.0600
    SETDIJ:  cpu time    0.0720: real time    0.0730
     EDDAV:  cpu time   10.2286: real time   10.2588
       DOS:  cpu time    0.0120: real time    0.0128
    CHARGE:  cpu time    0.3240: real time    0.3235
    MIXING:  cpu time    0.0000: real time    0.0013
    --------------------------------------------
      LOOP:  cpu time   10.6967: real time   10.7294

 eigenvalue-minimisations  : 22592
 total energy-change (2. order) : 0.2785697E-02  (-0.3192672E-02)
 number of electron     188.0000008 magnetization      20.0280485
 augmentation part      106.3465833 magnetization      16.0559157

 Broyden mixing:
  rms(total) = 0.23598E+00    rms(broyden)= 0.23598E+00
  rms(prec ) = 0.30979E+00
  weight for this iteration     100.00

 eigenvalues of (default mixing * dielectric matrix)
  average eigenvalue GAMMA=   1.5918
  5.9697  4.2353  1.0611  1.0611  0.8563  0.3557  0.2276  0.2866  0.2727

 Free energy of the ion-electron system (eV)
  ---------------------------------------------------
  alpha Z        PSCENC =      1253.36329901
  Ewald energy   TEWEN  =    -22209.25052895
  -Hartree energ DENC   =     -8222.52357710
  -exchange      EXHF   =         0.00000000
  -V(xc)+E(xc)   XCENC  =       893.19811972
  PAW double counting   =     30368.16449129   -31823.12022652
  entropy T*S    EENTRO =         0.00076196
  eigenvalues    EBANDS =     -2245.60047639
  atomic energy  EATOM  =     31864.11063514
  Solvation  Ediel_sol  =         0.00000000
  ---------------------------------------------------
  free energy    TOTEN  =      -121.65750186 eV

  energy without entropy =     -121.65826381  energy(sigma->0) =     -121.65775584


--------------------------------------------------------------------------------------------------------




--------------------------------------- Iteration      1(  16)  ---------------------------------------


    POTLOK:  cpu time    0.0600: real time    0.0606
    SETDIJ:  cpu time    0.0720: real time    0.0732
     EDDAV:  cpu time   10.0086: real time   10.0366
       DOS:  cpu time    0.0120: real time    0.0134
    CHARGE:  cpu time    0.3200: real time    0.3230
    MIXING:  cpu time    0.0040: real time    0.0014
    --------------------------------------------
      LOOP:  cpu time   10.4767: real time   10.5082

 eigenvalue-minimisations  : 21888
 total energy-change (2. order) :-0.3178982E-02  (-0.6742397E-02)
 number of electron     188.0000008 magnetization      20.0114654
 augmentation part      106.2987786 magnetization      16.0750130

 Broyden mixing:
  rms(total) = 0.71215E-01    rms(broyden)= 0.71202E-01
  rms(prec ) = 0.95227E-01
  weight for this iteration     100.00

 eigenvalues of (default mixing * dielectric matrix)
  average eigenvalue GAMMA=   1.5833
  6.3074  4.2269  1.3076  0.9955  0.9955  0.8570  0.3555  0.2276  0.2867  0.2737

 Free energy of the ion-electron system (eV)
  ---------------------------------------------------
  alpha Z        PSCENC =      1253.36329901
  Ewald energy   TEWEN  =    -22209.25052895
  -Hartree energ DENC   =     -8222.31425771
  -exchange      EXHF   =         0.00000000
  -V(xc)+E(xc)   XCENC  =       893.56644768
  PAW double counting   =     30396.95859246   -31854.93687429
  entropy T*S    EENTRO =         0.00166300
  eigenvalues    EBANDS =     -2243.15965717
  atomic energy  EATOM  =     31864.11063514
  Solvation  Ediel_sol  =         0.00000000
  ---------------------------------------------------
  free energy    TOTEN  =      -121.66068084 eV

  energy without entropy =     -121.66234384  energy(sigma->0) =     -121.66123517


--------------------------------------------------------------------------------------------------------




--------------------------------------- Iteration      1(  17)  ---------------------------------------


    POTLOK:  cpu time    0.0600: real time    0.0605
    SETDIJ:  cpu time    0.0720: real time    0.0728
     EDDAV:  cpu time    9.6606: real time    9.6889
[...]
  0.000   0.000   0.016   0.000  -0.000   0.000  -0.000   0.000  -0.006   0.000   0.000   0.000  -1.385   0.000   0.000   0.000
  0.000   0.000  -0.000   0.000   0.016   0.000  -0.000   0.000   0.000   0.000  -0.006   0.000   0.000   0.000  -1.407   0.000
 -0.000   0.000  -0.000   0.000  -0.000   0.000   0.000   0.000  -0.000   0.000   0.000   0.000  -0.000   0.000   0.000   0.000
  0.016   0.000   0.000   0.000   0.000   0.000  -0.006   0.000  -0.000   0.000  -0.000   0.000   0.000   0.000  -0.000   0.000
 -0.000   0.000   0.000   0.000   0.000   0.000   0.000   0.000  -0.000   0.000  -0.000   0.000  -0.000   0.000  -0.000   0.000
  0.000   0.000  -0.000   0.000  -0.000   0.000   0.000   0.000  -0.000   0.000  -0.000   0.000  -0.000   0.000  -0.000   0.000
  0.000   0.000  -0.000   0.000  -0.000   0.000   0.000   0.000  -0.000   0.000  -0.000   0.000  -0.000   0.000  -0.000   0.000
 pseudopotential strength for first ion, spin component:           2
-42.209   0.000   0.000   0.000   0.000   0.000   6.441   0.000  -0.000   0.000  -0.000   0.000   0.000   0.000   0.000   0.000
  0.000   0.000 -42.206   0.000   0.000   0.000  -0.000   0.000   6.439   0.000  -0.000   0.000  -0.005   0.000  -0.000   0.000
  0.000   0.000   0.000   0.000 -42.199   0.000  -0.000   0.000  -0.000   0.000   6.437   0.000  -0.000   0.000  -0.005   0.000
  6.441   0.000  -0.000   0.000  -0.000   0.000   5.930   0.000  -0.000   0.000  -0.000   0.000  -0.000   0.000  -0.000   0.000
 -0.000   0.000   6.439   0.000  -0.000   0.000  -0.000   0.000   5.931   0.000  -0.000   0.000   0.004   0.000   0.000   0.000
 -0.000   0.000  -0.000   0.000   6.437   0.000  -0.000   0.000  -0.000   0.000   5.931   0.000   0.000   0.000   0.004   0.000
  0.000   0.000  -0.005   0.000  -0.000   0.000  -0.000   0.000   0.004   0.000   0.000   0.000   0.102   0.000   0.000   0.000
  0.000   0.000  -0.000   0.000  -0.005   0.000  -0.000   0.000   0.000   0.000   0.004   0.000   0.000   0.000   0.100   0.000
 -0.000   0.000  -0.000   0.000  -0.000   0.000   0.000   0.000  -0.000   0.000   0.000   0.000  -0.000   0.000   0.000   0.000
 -0.005   0.000   0.000   0.000   0.000   0.000   0.004   0.000  -0.000   0.000  -0.000   0.000   0.000   0.000  -0.000   0.000
 -0.000   0.000   0.000   0.000   0.000   0.000   0.000   0.000  -0.000   0.000  -0.000   0.000  -0.000   0.000  -0.000   0.000
  0.000   0.000  -0.005   0.000  -0.000   0.000  -0.000   0.000   0.004   0.000   0.000   0.000  -0.449   0.000   0.000   0.000
  0.000   0.000  -0.000   0.000  -0.005   0.000  -0.000   0.000   0.000   0.000   0.004   0.000   0.000   0.000  -0.450   0.000
 -0.000   0.000  -0.000   0.000  -0.000   0.000   0.000   0.000  -0.000   0.000   0.000   0.000  -0.000   0.000   0.000   0.000
 -0.005   0.000   0.000   0.000   0.000   0.000   0.004   0.000  -0.000   0.000  -0.000   0.000   0.000   0.000  -0.000   0.000
 -0.000   0.000   0.000   0.000   0.000   0.000   0.000   0.000  -0.000   0.000  -0.000   0.000  -0.000   0.000  -0.000   0.000
  0.000   0.000  -0.000   0.000  -0.000   0.000   0.000   0.000  -0.000   0.000  -0.000   0.000  -0.000   0.000  -0.000   0.000
  0.000   0.000  -0.000   0.000  -0.000   0.000   0.000   0.000  -0.000   0.000  -0.000   0.000  -0.000   0.000  -0.000   0.000
 total augmentation occupancy for first ion, spin component:           1
  1.993   0.000   0.000  -0.020   0.000   0.000   0.000   0.000   0.000  -0.000   0.000   0.000   0.000   0.000  -0.000   0.000
  0.000   1.993   0.000   0.000  -0.020   0.000  -0.000   0.000   0.000   0.000   0.000  -0.000   0.000   0.000   0.000   0.000
  0.000   0.000   1.993   0.000   0.000  -0.020   0.000  -0.001   0.000   0.000   0.000   0.000   0.000   0.000   0.000   0.000
 -0.020   0.000   0.000   0.207   0.000   0.000   0.000   0.000   0.000  -0.053   0.000   0.000   0.000   0.000   0.027   0.000
  0.000  -0.020   0.000   0.000   0.216   0.000  -0.058   0.000   0.000   0.000   0.000   0.033   0.000   0.000   0.000   0.000
  0.000   0.000  -0.020   0.000   0.000   0.218   0.000  -0.061   0.000   0.000   0.000   0.000   0.035   0.000   0.000   0.000
  0.000  -0.000   0.000   0.000  -0.058   0.000   2.133   0.000   0.000   0.000   0.000  -1.443   0.000   0.000   0.000   0.000
  0.000   0.000  -0.001   0.000   0.000  -0.061   0.000   2.153   0.000   0.000   0.000   0.000  -1.465   0.000   0.000   0.000
  0.000   0.000   0.000   0.000   0.000   0.000   0.000   0.000   2.363   0.000   0.055   0.000   0.000  -1.674   0.000  -0.040
 -0.000   0.000   0.000  -0.053   0.000   0.000   0.000   0.000   0.000   2.214   0.000   0.000   0.000   0.000  -1.516   0.000
  0.000   0.000   0.000   0.000   0.000   0.000   0.000   0.000   0.055   0.000   2.405   0.000   0.000  -0.040   0.000  -1.697
  0.000  -0.000   0.000   0.000   0.033   0.000  -1.443   0.000   0.000   0.000   0.000   2.213   0.000   0.000   0.000   0.000
  0.000   0.000   0.000   0.000   0.000   0.035   0.000  -1.465   0.000   0.000   0.000   0.000   2.229   0.000   0.000   0.000
  0.000   0.000   0.000   0.000   0.000   0.000   0.000   0.000  -1.674   0.000  -0.040   0.000   0.000   2.188   0.000   0.018
 -0.000   0.000   0.000   0.027   0.000   0.000   0.000   0.000   0.000  -1.516   0.000   0.000   0.000   0.000   2.269   0.000
  0.000   0.000   0.000   0.000   0.000   0.000   0.000   0.000  -0.040   0.000  -1.697   0.000   0.000   0.018   0.000   2.192
  0.000   0.000   0.000   0.000   0.000   0.000   0.000   0.000  -0.015   0.000  -0.023   0.000   0.000   0.017   0.000   0.029
  0.000   0.000   0.000   0.000   0.000   0.000   0.000   0.000   0.000   0.000  -0.003   0.000   0.000  -0.000   0.000   0.001
 total augmentation occupancy for first ion, spin component:           2
 -0.001   0.000   0.000  -0.005   0.000   0.000   0.000   0.000   0.000  -0.008   0.000   0.000   0.000   0.000   0.009   0.000
  0.000  -0.001   0.000   0.000  -0.006   0.000  -0.008   0.000   0.000   0.000   0.000   0.009   0.000   0.000   0.000   0.000
  0.000   0.000  -0.001   0.000   0.000  -0.006   0.000  -0.008   0.000   0.000   0.000   0.000   0.009   0.000   0.000   0.000
 -0.005   0.000   0.000  -0.005   0.000   0.000   0.000   0.000   0.000   0.066   0.000   0.000   0.000   0.000  -0.021   0.000
  0.000  -0.006   0.000   0.000  -0.009   0.000   0.056   0.000   0.000   0.000   0.000  -0.016   0.000   0.000   0.000   0.000
  0.000   0.000  -0.006   0.000   0.000  -0.009   0.000   0.051   0.000   0.000   0.000   0.000  -0.014   0.000   0.000   0.000
  0.000  -0.008   0.000   0.000   0.056   0.000   0.896   0.000   0.000   0.000   0.000  -0.250   0.000   0.000   0.000   0.000
  0.000   0.000  -0.008   0.000   0.000   0.051   0.000   0.946   0.000   0.000   0.000   0.000  -0.264   0.000   0.000   0.000
  0.000   0.000   0.000   0.000   0.000   0.000   0.000   0.000   1.616   0.000   0.048   0.000   0.000  -0.502   0.000  -0.009
 -0.008   0.000   0.000   0.066   0.000   0.000   0.000   0.000   0.000   0.992   0.000   0.000   0.000   0.000  -0.285   0.000
  0.000   0.000   0.000   0.000   0.000   0.000   0.000   0.000   0.048   0.000   1.632   0.000   0.000  -0.010   0.000  -0.505
  0.000   0.009   0.000   0.000  -0.016   0.000  -0.250   0.000   0.000   0.000   0.000  -0.158   0.000   0.000   0.000   0.000
  0.000   0.000   0.009   0.000   0.000  -0.014   0.000  -0.264   0.000   0.000   0.000   0.000  -0.156   0.000   0.000   0.000
  0.000   0.000   0.000   0.000   0.000   0.000   0.000   0.000  -0.502   0.000  -0.010   0.000   0.000  -0.095   0.000   0.000
  0.009   0.000   0.000  -0.021   0.000   0.000   0.000   0.000   0.000  -0.285   0.000   0.000   0.000   0.000  -0.154   0.000
  0.000   0.000   0.000   0.000   0.000   0.000   0.000   0.000  -0.009   0.000  -0.505   0.000   0.000   0.000   0.000  -0.091
  0.000   0.000   0.000   0.000   0.000   0.000   0.000   0.000  -0.007   0.000  -0.020   0.000   0.000  -0.001   0.000   0.002
  0.000   0.000   0.000   0.000   0.000   0.000   0.000   0.000   0.000   0.000  -0.003   0.000   0.000   0.000   0.000   0.001


------------------------ aborting loop because EDIFF is reached ----------------------------------------


 


 total charge     
 
# of ion       s       p       d       tot
------------------------------------------
    1        0.350   6.404   6.281  13.035
    2        0.350   6.404   6.281  13.035
    3        0.344   6.396   6.289  13.029
    4        0.344   6.396   6.289  13.029
    5        0.378   6.398   6.076  12.852
    6        0.378   6.398   6.076  12.852
    7        0.378   6.398   6.076  12.852
    8        0.378   6.398   6.076  12.852
    9        0.442   6.523   7.458  14.424
   10        0.448   6.534   7.452  14.434
   11        0.442   6.523   7.458  14.424
   12        0.448   6.534   7.452  14.434
   13        0.707   0.887   0.000   1.594
   14        0.707   0.887   0.000   1.594
   15        0.707   0.887   0.000   1.594
   16        0.707   0.887   0.000   1.594
--------------------------------------------------
tot          7.510  80.852  79.267 167.629
 


 magnetization (x)
 
# of ion       s       p       d       tot
------------------------------------------
    1       -0.001  -0.017   1.505   1.487
    2       -0.001  -0.017   1.505   1.487
    3        0.001  -0.013   1.365   1.354
    4        0.001  -0.013   1.365   1.354
    5        0.004  -0.003   2.669   2.670
    6        0.004  -0.003   2.669   2.670
    7        0.004  -0.003   2.669   2.670
    8        0.004  -0.003   2.669   2.670
    9       -0.005  -0.022   1.007   0.979
   10       -0.009  -0.029   1.082   1.043
   11       -0.005  -0.022   1.007   0.979
   12       -0.009  -0.029   1.082   1.043
   13        0.004  -0.030   0.000  -0.027
   14        0.004  -0.030   0.000  -0.027
   15        0.004  -0.030   0.000  -0.027
   16        0.004  -0.030   0.000  -0.027
--------------------------------------------------
tot          0.005  -0.296  20.592  20.300
 
    CHARGE:  cpu time    0.4840: real time    0.4825
    FORLOC:  cpu time    0.0000: real time    0.0029
    FORNL :  cpu time    1.7001: real time    1.7044
    STRESS:  cpu time    5.1843: real time    5.1979
    FORCOR:  cpu time    0.0520: real time    0.0545
    FORHAR:  cpu time    0.0080: real time    0.0085
    MIXING:  cpu time    0.0040: real time    0.0018
    OFIELD:  cpu time    0.0000: real time    0.0000

  FORCE on cell =-STRESS in cart. coord.  units (eV):
  Direction    XX          YY          ZZ          XY          YZ          ZX
  --------------------------------------------------------------------------------------
  Alpha Z  1253.36330  1253.36330  1253.36330
  Ewald   -7403.19156 -7403.19156 -7402.93122    -0.00000    -0.00000    -0.00000
  Hartree  2740.51367  2740.51367  2740.82272    -0.00000    -0.00000    -0.00000
  E(xc)   -1169.96052 -1169.96052 -1169.94935    -0.00000     0.00000     0.00000
  Local    1329.04203  1329.04203  1328.55867     0.00000     0.00000     0.00000
  n-local  -218.71330  -217.29918  -217.89360    -0.79745    -1.13309    -0.46061
  augment  1694.41150  1694.41150  1694.40388     0.00000     0.00000    -0.00000
  Kinetic  1768.78748  1778.84251  1773.60458    -0.88855    -1.43627    -0.68752
  Fock        0.00000     0.00000     0.00000     0.00000     0.00000     0.00000
  -------------------------------------------------------------------------------------
  Total      -0.01282    -0.01282    -0.02102     0.00000     0.00000     0.00000
  in kB      -0.11696    -0.11696    -0.19167     0.00000     0.00000     0.00000
  external pressure =       -0.14 kB  Pullay stress =        0.00 kB


 VOLUME and BASIS-vectors are now :
 -----------------------------------------------------------------------------
  energy-cutoff  :      500.00
  volume of cell :      175.68
      direct lattice vectors                 reciprocal lattice vectors
     5.600584137  0.000000000  0.000000000     0.178552804  0.000000000  0.000000000
     0.000000000  5.600584137  0.000000000     0.000000000  0.178552804  0.000000000
     0.000000000  0.000000000  5.600720157     0.000000000  0.000000000  0.178548467

  length of vectors
     5.600584137  5.600584137  5.600720157     0.178552804  0.178552804  0.178548467


 FORCES acting on ions
    electron-ion (+dipol)            ewald-force                    non-local-force                 convergence-correction
 -----------------------------------------------------------------------------------------------
   0.149E-10 -.138E-10 0.393E-09   0.128E-12 0.107E-12 0.000E+00   0.000E+00 0.000E+00 0.000E+00   -.426E-12 0.157E-12 -.888E-13
   0.159E-10 -.137E-10 -.391E-09   0.128E-12 0.782E-13 -.711E-14   0.000E+00 0.000E+00 0.000E+00   -.296E-12 -.101E-12 0.219E-12
   -.164E-10 -.137E-10 0.392E-09   0.213E-13 -.142E-13 -.213E-13   0.000E+00 0.000E+00 0.000E+00   0.439E-12 -.121E-12 -.705E-12
   0.147E-10 0.180E-10 -.391E-09   0.995E-13 -.213E-13 -.213E-13   0.000E+00 0.000E+00 0.000E+00   -.431E-12 0.851E-13 0.847E-12
   -.138E+02 0.138E+02 0.296E-11   0.144E+02 -.144E+02 -.106E-12   -.624E+00 0.624E+00 0.000E+00   0.150E-02 -.150E-02 -.102E-12
   -.138E+02 -.138E+02 0.193E-11   0.144E+02 0.144E+02 -.514E-13   -.624E+00 -.624E+00 0.867E-18   0.150E-02 0.150E-02 0.170E-12
   0.138E+02 0.138E+02 -.847E-11   -.144E+02 -.144E+02 0.594E-14   0.624E+00 0.624E+00 0.260E-17   -.150E-02 -.150E-02 0.188E-12
   0.138E+02 -.138E+02 0.592E-11   -.144E+02 0.144E+02 0.647E-13   0.624E+00 -.624E+00 -.217E-17   -.150E-02 0.150E-02 -.109E-12
   -.295E-10 0.319E-10 0.181E-08   0.000E+00 -.142E-13 0.000E+00   0.000E+00 0.000E+00 0.000E+00   0.283E-12 0.536E-13 -.196E-12
   -.300E-10 -.277E-10 -.180E-08   0.426E-13 -.284E-13 0.284E-13   0.000E+00 0.000E+00 0.000E+00   0.271E-12 0.125E-12 0.840E-12
   -.302E-10 0.320E-10 -.180E-08   -.142E-13 -.426E-13 0.426E-13   0.000E+00 0.000E+00 0.000E+00   0.426E-12 -.139E-12 0.287E-12
   0.294E-10 0.312E-10 0.180E-08   -.426E-13 0.568E-13 0.711E-13   0.000E+00 0.000E+00 0.000E+00   -.382E-12 -.165E-12 -.783E-12
   -.525E+01 0.525E+01 -.837E-13   0.568E+01 -.568E+01 0.141E-13   -.430E+00 0.430E+00 0.000E+00   0.377E-03 -.377E-03 0.181E-13
   0.525E+01 0.525E+01 0.111E-11   -.568E+01 -.568E+01 -.140E-13   0.430E+00 0.430E+00 0.152E-17   -.377E-03 -.377E-03 -.301E-13
   -.525E+01 -.525E+01 -.234E-13   0.568E+01 0.568E+01 0.147E-13   -.430E+00 -.430E+00 0.434E-18   0.377E-03 0.377E-03 -.334E-13
   0.525E+01 -.525E+01 -.316E-11   -.568E+01 0.568E+01 -.289E-13   0.430E+00 -.430E+00 0.000E+00   -.377E-03 0.377E-03 0.137E-13
 -----------------------------------------------------------------------------------------------
   0.520E-09 -.506E-09 0.644E-11   0.178E-14 0.711E-13 -.840E-14   0.111E-15 0.555E-16 0.325E-17   -.504E-12 -.121E-11 0.536E-12
 
 
 POSITION                                       TOTAL-FORCE (eV/Angst)
 -----------------------------------------------------------------------------------
      2.80029      0.00000      2.80036         0.000000     -0.000000     -0.000000
      2.80029      0.00000      0.00000         0.000000     -0.000000     -0.000000
      0.00000      0.00000      2.80036         0.000000     -0.000000     -0.000000
      2.80029      2.80029      0.00000         0.000000     -0.000000     -0.000000
      1.41437      1.38592      4.20054        -0.001187      0.001187     -0.000000
      1.41437      4.21466      1.40018        -0.001187     -0.001187     -0.000000
      4.18622      1.38592      1.40018         0.001187      0.001187      0.000000
      4.18622      4.21466      4.20054         0.001187     -0.001187      0.000000
      0.00000      2.80029      2.80036         0.000000     -0.000000     -0.000000
      0.00000      0.00000      0.00000         0.000000     -0.000000     -0.000000
      0.00000      2.80029      0.00000         0.000000     -0.000000     -0.000000
      2.80029      2.80029      2.80036         0.000000     -0.000000     -0.000000
      1.39680      1.40349      1.40018        -0.001969      0.001969     -0.000000
      4.20379      1.40349      4.20054         0.001969      0.001969      0.000000
      1.39680      4.19709      4.20054        -0.001969     -0.001969     -0.000000
      4.20379      4.19709      1.40018         0.001969     -0.001969     -0.000000
 -----------------------------------------------------------------------------------
    total drift:                                0.000000     -0.000000      0.000000


--------------------------------------------------------------------------------------------------------



  FREE ENERGIE OF THE ION-ELECTRON SYSTEM (eV)
  ---------------------------------------------------
  free  energy   TOTEN  =      -121.66159322 eV

  energy  without entropy=     -121.66312140  energy(sigma->0) =     -121.66210261
 


--------------------------------------------------------------------------------------------------------


    POTLOK:  cpu time    0.1240: real time    0.1263


--------------------------------------------------------------------------------------------------------


     LOOP+:  cpu time  262.6084: real time  263.6830
    4ORBIT:  cpu time    0.0000: real time    0.0000
 


 total charge     
 
# of ion       s       p       d       tot
------------------------------------------
    1        0.350   6.404   6.281  13.035
    2        0.350   6.404   6.281  13.035
    3        0.344   6.396   6.289  13.029
    4        0.344   6.396   6.289  13.029
    5        0.378   6.398   6.076  12.852
    6        0.378   6.398   6.076  12.852
    7        0.378   6.398   6.076  12.852
    8        0.378   6.398   6.076  12.852
    9        0.442   6.523   7.458  14.424
   10        0.448   6.534   7.452  14.434
   11        0.442   6.523   7.458  14.424
   12        0.448   6.534   7.452  14.434
   13        0.707   0.887   0.000   1.594
   14        0.707   0.887   0.000   1.594
   15        0.707   0.887   0.000   1.594
   16        0.707   0.887   0.000   1.594
--------------------------------------------------
tot          7.510  80.852  79.267 167.629
 


 magnetization (x)
 
# of ion       s       p       d       tot
------------------------------------------
    1       -0.001  -0.017   1.505   1.487
    2       -0.001  -0.017   1.505   1.487
    3        0.001  -0.013   1.365   1.354
    4        0.001  -0.013   1.365   1.354
    5        0.004  -0.003   2.669   2.670
    6        0.004  -0.003   2.669   2.670
    7        0.004  -0.003   2.669   2.670
    8        0.004  -0.003   2.669   2.670
    9       -0.005  -0.022   1.007   0.979
   10       -0.009  -0.029   1.082   1.043
   11       -0.005  -0.022   1.007   0.979
   12       -0.009  -0.029   1.082   1.043
   13        0.004  -0.030   0.000  -0.027
   14        0.004  -0.030   0.000  -0.027
   15        0.004  -0.030   0.000  -0.027
   16        0.004  -0.030   0.000  -0.027
--------------------------------------------------
tot          0.005  -0.296  20.592  20.300
 

 total amount of memory used by VASP MPI-rank0    48185. kBytes
=======================================================================

   base      :      30000. kBytes
   nonlr-proj:       2423. kBytes
   fftplans  :       3136. kBytes
   grid      :       2596. kBytes
   one-center:         31. kBytes
   wavefun   :       9999. kBytes
 
  
  
 General timing and accounting informations for this job:
 ========================================================
  
                  Total CPU time used (sec):      273.857
                            User time (sec):      272.713
                          System time (sec):        1.144
                         Elapsed time (sec):      276.195
  
                   Maximum memory used (kb):      107296.
                   Average memory used (kb):           0.
  
                          Minor page faults:        27670
                          Major page faults:            0
                 Voluntary context switches:         4192
