 vasp.6.1.1 19Jun20 (build Jan 21 2021 08:43:03) complex                        
  
 executed on             LinuxIFC date 2023.04.01  04:21:56
 running on   80 total cores
 distrk:  each k-point on   80 cores,    1 groups
 distr:  one band on NCORE=  10 cores,    8 groups


--------------------------------------------------------------------------------------------------------


 INCAR:
 POTCAR:    PAW_PBE Fe_pv 02Aug2007               
 POTCAR:    PAW_PBE Co_pv 23Apr2009               
 POTCAR:       PAW_PBE Sn 08Apr2002               
 -----------------------------------------------------------------------------
|                                                                             |
|           W    W    AA    RRRRR   N    N  II  N    N   GGGG   !!!           |
|           W    W   A  A   R    R  NN   N  II  NN   N  G    G  !!!           |
|           W    W  A    A  R    R  N N  N  II  N N  N  G       !!!           |
|           W WW W  AAAAAA  RRRRR   N  N N  II  N  N N  G  GGG   !            |
|           WW  WW  A    A  R   R   N   NN  II  N   NN  G    G                |
|           W    W  A    A  R    R  N    N  II  N    N   GGGG   !!!           |
|                                                                             |
|     The value NCORE = 4 specified in the INCAR file was overwritten,        |
|     because it was not compatible with the 80 processes available:          |
|     NCORE = 10                                                              |
|     was used instead, please check that this makes sense for your           |
|     machine.                                                                |
|                                                                             |
 -----------------------------------------------------------------------------

 POTCAR:    PAW_PBE Fe_pv 02Aug2007               
   VRHFIN =Fe:  3pd7s1                                                                              
   LEXCH  = PE                                                                                      
   EATOM  =  2457.4239 eV,  180.6156 Ry                                                             
                                                                                                    
   TITEL  = PAW_PBE Fe_pv 02Aug2007                                                                 
   LULTRA =        F    use ultrasoft PP ?                                                          
   IUNSCR =        1    unscreen: 0-lin 1-nonlin 2-no                                               
   RPACOR =    1.750    partial core radius                                                         
   POMASS =   55.847; ZVAL   =   14.000    mass and valenz                                          
   RCORE  =    2.200    outmost cutoff radius                                                       
   RWIGS  =    2.200; RWIGS  =    1.164    wigner-seitz radius (au A)                               
   ENMAX  =  293.238; ENMIN  =  219.928 eV                                                          
   ICORE  =        3    local potential                                                             
   LCOR   =        T    correct aug charges                                                         
   LPAW   =        T    paw PP                                                                      
   EAUG   =  578.342                                                                                
   DEXC   =    0.000                                                                                
   RMAX   =    2.249    core radius for proj-oper                                                   
   RAUG   =    1.300    factor for augmentation sphere                                              
   RDEP   =    2.296    radius for radial grids                                                     
   RDEPT  =    1.766    core radius for aug-charge                                                  
                                                                                                    
   Atomic configuration                                                                             
    8 entries                                                                                       
     n  l   j            E        occ.                                                              
     1  0  0.50     -6993.8440   2.0000                                                             
     2  0  0.50      -814.6047   2.0000                                                             
     2  1  1.50      -693.3689   6.0000                                                             
     3  0  0.50       -89.4732   2.0000                                                             
     3  1  1.50       -55.6373   6.0000                                                             
     3  2  2.50        -3.8151   7.0000                                                             
     4  0  0.50        -4.2551   1.0000                                                             
     4  3  2.50        -1.3606   0.0000                                                             
   Description                                                                                      
     l       E           TYP  RCUT    TYP  RCUT                                                     
     1    -55.6372668     23  2.000                                                                 
     1     -5.4423304     23  2.000                                                                 
     2     -3.8151096     23  2.200                                                                 
     2     -5.1756922     23  2.200                                                                 
     0     -4.2550951     23  2.200                                                                 
     0     27.2116520     23  2.200                                                                 
     3     -1.3605826     23  2.200                                                                 
  local pseudopotential read in
  partial core-charges read in
  partial kinetic energy density read in
  atomic valenz-charges read in
  non local Contribution for L=           1  read in
    real space projection operators read in
  non local Contribution for L=           1  read in
    real space projection operators read in
  non local Contribution for L=           2  read in
    real space projection operators read in
  non local Contribution for L=           2  read in
    real space projection operators read in
  non local Contribution for L=           0  read in
    real space projection operators read in
  non local Contribution for L=           0  read in
    real space projection operators read in
    PAW grid and wavefunctions read in
 
   number of l-projection  operators is LMAX  =           6
   number of lm-projection operators is LMMAX =          18
 
 POTCAR:    PAW_PBE Co_pv 23Apr2009               
   VRHFIN =Co: 3pd7s1                                                                               
   LEXCH  = PE                                                                                      
   EATOM  =  2948.1334 eV,  216.6817 Ry                                                             
                                                                                                    
   TITEL  = PAW_PBE Co_pv 23Apr2009                                                                 
   LULTRA =        F    use ultrasoft PP ?                                                          
   IUNSCR =        1    unscreen: 0-lin 1-nonlin 2-no                                               
   RPACOR =    2.000    partial core radius                                                         
   POMASS =   58.933; ZVAL   =   15.000    mass and valenz                                          
   RCORE  =    2.300    outmost cutoff radius                                                       
   RWIGS  =    2.460; RWIGS  =    1.302    wigner-seitz radius (au A)                               
   ENMAX  =  271.042; ENMIN  =  203.281 eV                                                          
   ICORE  =        3    local potential                                                             
   LCOR   =        T    correct aug charges                                                         
   LPAW   =        T    paw PP                                                                      
   EAUG   =  543.066                                                                                
   DEXC   =    0.000                                                                                
   RMAX   =    2.360    core radius for proj-oper                                                   
   RAUG   =    1.300    factor for augmentation sphere                                              
   RDEP   =    2.393    radius for radial grids                                                     
   RDEPT  =    1.841    core radius for aug-charge                                                  
                                                                                                    
   Atomic configuration                                                                             
    8 entries                                                                                       
     n  l   j            E        occ.                                                              
     1  0  0.50     -7587.6674   2.0000                                                             
     2  0  0.50      -893.6084   2.0000                                                             
     2  1  1.50      -764.5805   6.0000                                                             
     3  0  0.50       -97.5973   2.0000                                                             
     3  1  1.50       -60.9648   6.0000                                                             
     3  2  2.50        -4.2382   8.0000                                                             
     4  0  0.50        -4.3746   1.0000                                                             
     4  3  2.50        -1.3606   0.0000                                                             
   Description                                                                                      
     l       E           TYP  RCUT    TYP  RCUT                                                     
     1    -60.9647990     23  2.000                                                                 
     1     -5.4423304     23  2.000                                                                 
     2     -4.2382362     23  2.300                                                                 
     2     -5.5988188     23  2.300                                                                 
     0     -4.3745797     23  2.300                                                                 
     0      5.7660125     23  2.300                                                                 
     3     -1.3605826     23  2.300                                                                 
  local pseudopotential read in
  partial core-charges read in
  partial kinetic energy density read in
  atomic valenz-charges read in
  non local Contribution for L=           1  read in
    real space projection operators read in
  non local Contribution for L=           1  read in
    real space projection operators read in
  non local Contribution for L=           2  read in
    real space projection operators read in
  non local Contribution for L=           2  read in
    real space projection operators read in
  non local Contribution for L=           0  read in
    real space projection operators read in
  non local Contribution for L=           0  read in
    real space projection operators read in
    PAW grid and wavefunctions read in
 
   number of l-projection  operators is LMAX  =           6
   number of lm-projection operators is LMMAX =          18
 
 POTCAR:       PAW_PBE Sn 08Apr2002               
   VRHFIN =Sn: s2p2                                                                                 
   LEXCH  = PE                                                                                      
   EATOM  =    94.0860 eV,    6.9151 Ry                                                             
                                                                                                    
   TITEL  = PAW_PBE Sn 08Apr2002                                                                    
   LULTRA =        F    use ultrasoft PP ?                                                          
   IUNSCR =        1    unscreen: 0-lin 1-nonlin 2-no                                               
   RPACOR =    2.000    partial core radius                                                         
   POMASS =  118.710; ZVAL   =    4.000    mass and valenz                                          
   RCORE  =    3.000    outmost cutoff radius                                                       
   RWIGS  =    2.960; RWIGS  =    1.566    wigner-seitz radius (au A)                               
   ENMAX  =  103.236; ENMIN  =   77.427 eV                                                          
   ICORE  =        3    local potential                                                             
   LCOR   =        T    correct aug charges                                                         
   LPAW   =        T    paw PP                                                                      
   EAUG   =  263.585                                                                                
   DEXC   =    0.000                                                                                
   RMAX   =    3.078    core radius for proj-oper                                                   
   RAUG   =    1.300    factor for augmentation sphere                                              
   RDEP   =    3.022    radius for radial grids                                                     
   RDEPT  =    2.655    core radius for aug-charge                                                  
                                                                                                    
   Atomic configuration                                                                             
   13 entries                                                                                       
     n  l   j            E        occ.                                                              
     1  0  0.50    -29007.2859   2.0000                                                             
     2  0  0.50     -4378.8056   2.0000                                                             
     2  1  1.50     -3930.4293   6.0000                                                             
     3  0  0.50      -845.0264   2.0000                                                             
     3  1  1.50      -698.5725   6.0000                                                             
     3  2  2.50      -473.2839  10.0000                                                             
     4  0  0.50      -133.9036   2.0000                                                             
     4  1  1.50       -89.6752   6.0000                                                             
     4  2  2.50       -25.8375  10.0000                                                             
     5  0  0.50       -10.5484   2.0000                                                             
     5  1  0.50        -3.6940   2.0000                                                             
     5  2  1.50        -1.3606   0.0000                                                             
     4  3  2.50        -4.0817   0.0000                                                             
   Description                                                                                      
     l       E           TYP  RCUT    TYP  RCUT                                                     
     0    -10.5483727     23  3.000                                                                 
     0     27.2116520     23  3.000                                                                 
     1     -3.6939829     23  3.000                                                                 
     1      1.9821976     23  3.000                                                                 
     2     -1.3605826     23  3.000                                                                 
     3     -2.7211652     23  3.000                                                                 
  local pseudopotential read in
  partial core-charges read in
  partial kinetic energy density read in
  atomic valenz-charges read in
  non local Contribution for L=           0  read in
    real space projection operators read in
  non local Contribution for L=           0  read in
    real space projection operators read in
  non local Contribution for L=           1  read in
    real space projection operators read in
  non local Contribution for L=           1  read in
    real space projection operators read in
  non local Contribution for L=           2  read in
    real space projection operators read in
    PAW grid and wavefunctions read in
 
   number of l-projection  operators is LMAX  =           5
   number of lm-projection operators is LMMAX =          13
 
 Optimization of the real space projectors (new method)

 maximal supplied QI-value         = 17.01
 optimisation between [QCUT,QGAM] = [ 11.40, 22.79] = [ 36.36,145.44] Ry 
 Optimized for a Real-space Cutoff    1.47 Angstroem

   l    n(q)    QCUT    max X(q) W(low)/X(q) W(high)/X(q)  e(spline) 
   1     10    11.395     4.267    0.90E-04    0.11E-03    0.18E-06
   1     10    11.395     5.750    0.14E-03    0.15E-03    0.25E-06
   2      9    11.395    53.656    0.13E-03    0.36E-04    0.15E-06
   2      9    11.395    49.521    0.14E-03    0.36E-04    0.15E-06
   0     10    11.395    31.246    0.58E-04    0.17E-05    0.98E-07
   0     10    11.395    12.201    0.41E-04    0.11E-05    0.82E-07
 Optimization of the real space projectors (new method)

 maximal supplied QI-value         = 16.25
 optimisation between [QCUT,QGAM] = [ 11.38, 22.75] = [ 36.24,144.96] Ry 
 Optimized for a Real-space Cutoff    1.47 Angstroem

   l    n(q)    QCUT    max X(q) W(low)/X(q) W(high)/X(q)  e(spline) 
   1     10    11.376     4.946    0.88E-04    0.16E-03    0.15E-06
   1     10    11.376     5.991    0.13E-03    0.24E-03    0.21E-06
   2      9    11.376    46.947    0.87E-04    0.91E-04    0.20E-06
   2      9    11.376    42.928    0.91E-04    0.94E-04    0.20E-06
   0     10    11.376    68.324    0.58E-04    0.21E-04    0.82E-07
   0     10    11.376    36.926    0.52E-04    0.19E-04    0.78E-07
 Optimization of the real space projectors (new method)

 maximal supplied QI-value         = 12.47
 optimisation between [QCUT,QGAM] = [ 11.35, 22.82] = [ 36.07,145.88] Ry 
 Optimized for a Real-space Cutoff    1.66 Angstroem

   l    n(q)    QCUT    max X(q) W(low)/X(q) W(high)/X(q)  e(spline) 
   0     11    11.350    14.688    0.21E-04    0.12E-04    0.45E-07
   0     11    11.350     7.308    0.36E-04    0.28E-04    0.12E-06
   1     11    11.350    45.102    0.58E-04    0.28E-04    0.33E-06
   1     11    11.350    30.691    0.55E-04    0.27E-04    0.31E-06
   2     10    11.350     7.156    0.77E-05    0.22E-04    0.47E-07
  PAW_PBE Fe_pv 02Aug2007               :
 energy of atom  1       EATOM=-2457.4239
 kinetic energy error for atom=    0.0069 (will be added to EATOM!!)
  PAW_PBE Co_pv 23Apr2009               :
 energy of atom  2       EATOM=-2948.1334
 kinetic energy error for atom=    0.0060 (will be added to EATOM!!)
     PAW_PBE Sn 08Apr2002               :
 energy of atom  3       EATOM=  -94.0860
 kinetic energy error for atom=    0.0000 (will be added to EATOM!!)
 
 
 POSCAR: Heusler tetragonGa
  positions in direct lattice
  velocities in cartesian coordinates
 exchange correlation table for  LEXCH =        8
   RHO(1)=    0.500       N(1)  =     2000
   RHO(2)=  100.500       N(2)  =     4000
 


--------------------------------------------------------------------------------------------------------


 ion  position               nearest neighbor table
   1  0.500  0.500  0.500-   5 2.59   6 2.59   7 2.59   8 2.59  13 2.59  14 2.59  15 2.59  16 2.59

   2  0.000  0.000  0.500-   5 2.59   6 2.59   7 2.59   8 2.59  13 2.59  14 2.59  15 2.59  16 2.59

   3  0.500  0.500  0.000-   5 2.59   6 2.59   7 2.59   8 2.59  13 2.59  14 2.59  15 2.59  16 2.59

   4  0.000  0.000  0.000-   5 2.59   6 2.59   7 2.59   8 2.59  13 2.59  14 2.59  15 2.59  16 2.59

   5  0.250  0.250  0.750-   1 2.59   2 2.59   3 2.59   4 2.59   9 2.59  10 2.59  11 2.59  12 2.59

   6  0.250  0.750  0.250-   1 2.59   2 2.59   3 2.59   4 2.59   9 2.59  10 2.59  11 2.59  12 2.59

   7  0.750  0.250  0.250-   1 2.59   2 2.59   3 2.59   4 2.59   9 2.59  10 2.59  11 2.59  12 2.59

   8  0.750  0.750  0.750-   1 2.59   2 2.59   3 2.59   4 2.59   9 2.59  10 2.59  11 2.59  12 2.59

   9  0.500  0.000  0.000-   5 2.59   6 2.59   7 2.59   8 2.59  13 2.59  14 2.59  15 2.59  16 2.59

  10  0.000  0.500  0.000-   5 2.59   6 2.59   7 2.59   8 2.59  13 2.59  14 2.59  15 2.59  16 2.59

  11  0.500  0.000  0.500-   5 2.59   6 2.59   7 2.59   8 2.59  13 2.59  14 2.59  15 2.59  16 2.59

  12  0.000  0.500  0.500-   5 2.59   6 2.59   7 2.59   8 2.59  13 2.59  14 2.59  15 2.59  16 2.59

  13  0.250  0.250  0.250-   1 2.59   2 2.59   3 2.59   4 2.59   9 2.59  10 2.59  11 2.59  12 2.59

  14  0.750  0.250  0.750-   1 2.59   2 2.59   3 2.59   4 2.59   9 2.59  10 2.59  11 2.59  12 2.59

  15  0.250  0.750  0.750-   1 2.59   2 2.59   3 2.59   4 2.59   9 2.59  10 2.59  11 2.59  12 2.59

  16  0.750  0.750  0.250-   1 2.59   2 2.59   3 2.59   4 2.59   9 2.59  10 2.59  11 2.59  12 2.59

 
  LATTYP: Found a simple tetragonal cell.
 ALAT       =     6.0384502423
 C/A-ratio  =     0.9760983671
  
  Lattice vectors:
  
 A1 = (   6.0384502423,   0.0000000000,   0.0000000000)
 A2 = (   0.0000000000,   6.0384502423,   0.0000000000)
 A3 = (   0.0000000000,   0.0000000000,   5.8941214215)


Analysis of symmetry for initial positions (statically):
=====================================================================
 Subroutine PRICEL returns following result:
 
  LATTYP: Found a simple tetragonal cell.
 ALAT       =     4.2698291142
 C/A-ratio  =     1.3804115490
  
  Lattice vectors:
  
 A1 = (   3.0192251212,  -3.0192251212,   0.0000000000)
 A2 = (  -3.0192251212,  -3.0192251212,   0.0000000000)
 A3 = (   0.0000000000,   0.0000000000,  -5.8941214215)
 
   2 primitive cells build up your supercell.
 

 Routine SETGRP: Setting up the symmetry group for a 
 simple tetragonal supercell.


 Subroutine GETGRP returns: Found 16 space group operations
 (whereof  8 operations were pure point group operations)
 out of a pool of 16 trial point group operations.


The static configuration has the point symmetry D_2d.
 The point group associated with its full space group is D_4h.


Analysis of symmetry for dynamics (positions and initial velocities):
=====================================================================
 Subroutine PRICEL returns following result:
 
  LATTYP: Found a simple tetragonal cell.
 ALAT       =     4.2698291142
 C/A-ratio  =     1.3804115490
  
  Lattice vectors:
  
 A1 = (   3.0192251212,  -3.0192251212,   0.0000000000)
 A2 = (  -3.0192251212,  -3.0192251212,   0.0000000000)
 A3 = (   0.0000000000,   0.0000000000,  -5.8941214215)
 
   2 primitive cells build up your supercell.
 

 Routine SETGRP: Setting up the symmetry group for a 
 simple tetragonal supercell.


 Subroutine GETGRP returns: Found 16 space group operations
 (whereof  8 operations were pure point group operations)
 out of a pool of 16 trial point group operations.


The dynamic configuration has the point symmetry D_2d.
 The point group associated with its full space group is D_4h.


Analysis of structural, dynamic, and magnetic symmetry:
=====================================================================
 Subroutine PRICEL returns following result:
 
  LATTYP: Found a simple tetragonal cell.
 ALAT       =     4.2698291142
 C/A-ratio  =     1.3804115490
  
  Lattice vectors:
  
 A1 = (   3.0192251212,  -3.0192251212,   0.0000000000)
 A2 = (  -3.0192251212,  -3.0192251212,   0.0000000000)
 A3 = (   0.0000000000,   0.0000000000,  -5.8941214215)
 
   2 primitive cells build up your supercell.
 

 Routine SETGRP: Setting up the symmetry group for a 
 simple tetragonal supercell.


 Subroutine GETGRP returns: Found 16 space group operations
 (whereof  8 operations were pure point group operations)
 out of a pool of 16 trial point group operations.


The magnetic configuration has the point symmetry D_2d.
 The point group associated with its full space group is D_4h.


 Subroutine INISYM returns: Found 16 space group operations
 (whereof  8 operations are pure point group operations),
 and found     2 'primitive' translations


----------------------------------------------------------------------------------------

                                     Primitive cell                                     

  volume of cell :     107.4583

  direct lattice vectors                    reciprocal lattice vectors
     3.019225121 -3.019225121  0.000000000     0.165605405 -0.165605405  0.000000000
    -3.019225121 -3.019225121  0.000000000    -0.165605405 -0.165605405  0.000000000
     0.000000000  0.000000000 -5.894121422     0.000000000  0.000000000 -0.169660570

  length of vectors
     4.269829114  4.269829114  5.894121422     0.234201410  0.234201410  0.169660570

  position of ions in fractional coordinates (direct lattice)
     1.000000000  0.000000000  0.500000000
     1.000000000  0.000000000  0.000000000
     1.000000000  0.500000000  0.250000000
     0.500000000  0.000000000  0.750000000
     0.500000000  0.500000000  0.000000000
     0.500000000  0.500000000  0.500000000
     1.000000000  0.500000000  0.750000000
     0.500000000  0.000000000  0.250000000

  ion indices of the primitive-cell ions
   primitive index   ion index
                 1           1
                 2           3
                 3           5
                 4           6
                 5           9
                 6          11
                 7          13
                 8          14

----------------------------------------------------------------------------------------

 
 
 KPOINTS: Ni7CoMn5CrSn2                           

Automatic generation of k-mesh.
Space group operators:
 irot       det(A)        alpha          n_x          n_y          n_z        tau_x        tau_y        tau_z
    1     1.000000     0.000001     1.000000     0.000000     0.000000     0.000000     0.000000     0.000000
    2    -1.000000    90.000000     0.000000     0.000000    -1.000000     0.000000     0.000000     0.000000
    3     1.000000   180.000000     0.000000     0.000000     1.000000     0.000000     0.000000     0.000000
    4    -1.000000    90.000000     0.000000     0.000000     1.000000     0.000000     0.000000     0.000000
    5     1.000000   180.000000     0.000000     1.000000     0.000000     0.000000     0.000000     0.000000
    6    -1.000000   180.000000     0.707107     0.707107     0.000000     0.000000     0.000000     0.000000
    7     1.000000   180.000000     1.000000     0.000000     0.000000     0.000000     0.000000     0.000000
    8    -1.000000   180.000000     0.707107    -0.707107     0.000000     0.000000     0.000000     0.000000
    9    -1.000000     0.000001     1.000000     0.000000     0.000000     0.000000     0.000000     0.500000
   10     1.000000    90.000000     0.000000     0.000000    -1.000000     0.000000     0.000000     0.500000
   11    -1.000000   180.000000     0.000000     0.000000     1.000000     0.000000     0.000000     0.500000
   12     1.000000    90.000000     0.000000     0.000000     1.000000     0.000000     0.000000     0.500000
   13    -1.000000   180.000000     0.000000     1.000000     0.000000     0.000000     0.000000     0.500000
   14     1.000000   180.000000     0.707107     0.707107     0.000000     0.000000     0.000000     0.500000
   15    -1.000000   180.000000     1.000000     0.000000     0.000000     0.000000     0.000000     0.500000
   16     1.000000   180.000000     0.707107    -0.707107     0.000000     0.000000     0.000000     0.500000
 
 Subroutine IBZKPT returns following result:
 ===========================================
 
 Found     40 irreducible k-points:
 
 Following reciprocal coordinates:
            Coordinates               Weight
  0.062500  0.062500  0.062500      8.000000
  0.187500  0.062500  0.062500     16.000000
  0.312500  0.062500  0.062500     16.000000
  0.437500  0.062500  0.062500     16.000000
  0.187500  0.187500  0.062500      8.000000
  0.312500  0.187500  0.062500     16.000000
  0.437500  0.187500  0.062500     16.000000
  0.312500  0.312500  0.062500      8.000000
  0.437500  0.312500  0.062500     16.000000
  0.437500  0.437500  0.062500      8.000000
  0.062500  0.062500  0.187500      8.000000
  0.187500  0.062500  0.187500     16.000000
  0.312500  0.062500  0.187500     16.000000
  0.437500  0.062500  0.187500     16.000000
  0.187500  0.187500  0.187500      8.000000
  0.312500  0.187500  0.187500     16.000000
  0.437500  0.187500  0.187500     16.000000
  0.312500  0.312500  0.187500      8.000000
  0.437500  0.312500  0.187500     16.000000
  0.437500  0.437500  0.187500      8.000000
  0.062500  0.062500  0.312500      8.000000
  0.187500  0.062500  0.312500     16.000000
  0.312500  0.062500  0.312500     16.000000
  0.437500  0.062500  0.312500     16.000000
  0.187500  0.187500  0.312500      8.000000
  0.312500  0.187500  0.312500     16.000000
  0.437500  0.187500  0.312500     16.000000
  0.312500  0.312500  0.312500      8.000000
  0.437500  0.312500  0.312500     16.000000
  0.437500  0.437500  0.312500      8.000000
  0.062500  0.062500  0.437500      8.000000
  0.187500  0.062500  0.437500     16.000000
  0.312500  0.062500  0.437500     16.000000
  0.437500  0.062500  0.437500     16.000000
  0.187500  0.187500  0.437500      8.000000
  0.312500  0.187500  0.437500     16.000000
  0.437500  0.187500  0.437500     16.000000
  0.312500  0.312500  0.437500      8.000000
  0.437500  0.312500  0.437500     16.000000
  0.437500  0.437500  0.437500      8.000000
 
 Following cartesian coordinates:
            Coordinates               Weight
  0.062620  0.062620  0.064153      8.000000
  0.187859  0.062620  0.064153     16.000000
  0.313098  0.062620  0.064153     16.000000
  0.438337  0.062620  0.064153     16.000000
  0.187859  0.187859  0.064153      8.000000
  0.313098  0.187859  0.064153     16.000000
  0.438337  0.187859  0.064153     16.000000
  0.313098  0.313098  0.064153      8.000000
  0.438337  0.313098  0.064153     16.000000
  0.438337  0.438337  0.064153      8.000000
  0.062620  0.062620  0.192459      8.000000
  0.187859  0.062620  0.192459     16.000000
  0.313098  0.062620  0.192459     16.000000
  0.438337  0.062620  0.192459     16.000000
  0.187859  0.187859  0.192459      8.000000
  0.313098  0.187859  0.192459     16.000000
  0.438337  0.187859  0.192459     16.000000
  0.313098  0.313098  0.192459      8.000000
  0.438337  0.313098  0.192459     16.000000
  0.438337  0.438337  0.192459      8.000000
  0.062620  0.062620  0.320765      8.000000
  0.187859  0.062620  0.320765     16.000000
  0.313098  0.062620  0.320765     16.000000
  0.438337  0.062620  0.320765     16.000000
  0.187859  0.187859  0.320765      8.000000
  0.313098  0.187859  0.320765     16.000000
  0.438337  0.187859  0.320765     16.000000
  0.313098  0.313098  0.320765      8.000000
  0.438337  0.313098  0.320765     16.000000
  0.438337  0.438337  0.320765      8.000000
  0.062620  0.062620  0.449070      8.000000
  0.187859  0.062620  0.449070     16.000000
  0.313098  0.062620  0.449070     16.000000
  0.438337  0.062620  0.449070     16.000000
  0.187859  0.187859  0.449070      8.000000
  0.313098  0.187859  0.449070     16.000000
  0.438337  0.187859  0.449070     16.000000
  0.313098  0.313098  0.449070      8.000000
  0.438337  0.313098  0.449070     16.000000
  0.438337  0.438337  0.449070      8.000000
 


--------------------------------------------------------------------------------------------------------




 Dimension of arrays:
   k-points           NKPTS =     40   k-points in BZ     NKDIM =     40   number of bands    NBANDS=    128
   number of dos      NEDOS =   1500   number of ions     NIONS =     16
   non local maximal  LDIM  =      6   non local SUM 2l+1 LMDIM =     18
   total plane-waves  NPLWV = 110592
   max r-space proj   IRMAX =   9899   max aug-charges    IRDMAX= 396413
   dimension x,y,z NGX =    48 NGY =   48 NGZ =   48
   dimension x,y,z NGXF=    96 NGYF=   96 NGZF=   96
   support grid    NGXF=   192 NGYF=  192 NGZF=  192
   ions per type =               8   4   4
   NGX,Y,Z   is equivalent  to a cutoff of  13.21, 13.21, 13.54 a.u.
   NGXF,Y,Z  is equivalent  to a cutoff of  26.43, 26.43, 27.08 a.u.

 SYSTEM =  NiCoMnGa                                
 POSCAR =  Heusler tetragonGa                      

 Startparameter for this run:
   NWRITE =      2    write-flag & timer
   PREC   = accura    normal or accurate (medium, high low for compatibility)
   ISTART =      0    job   : 0-new  1-cont  2-samecut
   ICHARG =      2    charge: 1-file 2-atom 10-const
   ISPIN  =      2    spin polarized calculation?
   LNONCOLLINEAR =      F non collinear calculations
   LSORBIT =      F    spin-orbit coupling
   INIWAV =      1    electr: 0-lowe 1-rand  2-diag
   LASPH  =      F    aspherical Exc in radial PAW
   METAGGA=      F    non-selfconsistent MetaGGA calc.

 Electronic Relaxation 1
   ENCUT  =  500.0 eV  36.75 Ry    6.06 a.u.  11.01 11.01 10.75*2*pi/ulx,y,z
   ENINI  =  500.0     initial cutoff
   ENAUG  =  578.3 eV  augmentation charge cutoff
   NELM   =    160;   NELMIN=  2; NELMDL= -6     # of ELM steps 
   EDIFF  = 0.1E-05   stopping-criterion for ELM
   LREAL  =      T    real-space projection
   NLSPLINE    = F    spline interpolate recip. space projectors
   LCOMPAT=      F    compatible to vasp.4.4
   GGA_COMPAT  = T    GGA compatible to vasp.4.4-vasp.4.6
   LMAXPAW     = -100 max onsite density
   LMAXMIX     =    6 max onsite mixed and CHGCAR
   VOSKOWN=      0    Vosko Wilk Nusair interpolation
   ROPT   =   -0.00025  -0.00025  -0.00025
 Ionic relaxation
   EDIFFG = 0.1E-02   stopping-criterion for IOM
   NSW    =      0    number of steps for IOM
   NBLOCK =      1;   KBLOCK =      1    inner block; outer block 
   IBRION =     -1    ionic relax: 0-MD 1-quasi-New 2-CG
   NFREE  =      1    steps in history (QN), initial steepest desc. (CG)
   ISIF   =      3    stress and relaxation
   IWAVPR =     10    prediction:  0-non 1-charg 2-wave 3-comb
   ISYM   =      2    0-nonsym 1-usesym 2-fastsym
   LCORR  =      T    Harris-Foulkes like correction to forces

   POTIM  = 0.0100    time-step for ionic-motion
   TEIN   =    0.0    initial temperature
   TEBEG  =    0.0;   TEEND  =   0.0 temperature during run
   SMASS  =  -3.00    Nose mass-parameter (am)
   estimated Nose-frequenzy (Omega)   =  0.10E-29 period in steps = 0.63E+48 mass=  -0.833E-27a.u.
   SCALEE = 1.0000    scale energy and forces
   NPACO  =    256;   APACO  = 16.0  distance and # of slots for P.C.
   PSTRESS=    0.0 pullay stress

  Mass of Ions in am
   POMASS =  55.85 58.93118.71
  Ionic Valenz
   ZVAL   =  14.00 15.00  4.00
  Atomic Wigner-Seitz radii
   RWIGS  =   1.16  1.16  1.16
  virtual crystal weights 
   VCA    =   1.00  1.00  1.00
   NELECT =     188.0000    total number of electrons
   NUPDOWN=      -1.0000    fix difference up-down

 DOS related values:
   EMIN   =  10.00;   EMAX   =-10.00  energy-range for DOS
   EFERMI =   0.00
   ISMEAR =     1;   SIGMA  =   0.10  broadening in eV -4-tet -1-fermi 0-gaus

 Electronic relaxation 2 (details)
   IALGO  =     38    algorithm
   LDIAG  =      T    sub-space diagonalisation (order eigenvalues)
   LSUBROT=      F    optimize rotation matrix (better conditioning)
   TURBO    =      0    0=normal 1=particle mesh
   IRESTART =      0    0=no restart 2=restart with 2 vectors
   NREBOOT  =      0    no. of reboots
   NMIN     =      0    reboot dimension
   EREF     =   0.00    reference energy to select bands
   IMIX   =      4    mixing-type and parameters
     AMIX     =   0.18;   BMIX     =  0.00
     AMIX_MAG =   0.26;   BMIX_MAG =  0.01
     AMIN     =   0.10
     WC   =   100.;   INIMIX=   1;  MIXPRE=   1;  MAXMIX= -45

 Intra band minimization:
   WEIMIN = 0.0000     energy-eigenvalue tresh-hold
   EBREAK =  0.20E-08  absolut break condition
   DEPER  =   0.30     relativ break condition  

   TIME   =   0.40     timestep for ELM

  volume/ion in A,a.u.               =      13.43        90.65
  Fermi-wavevector in a.u.,A,eV,Ry     =   1.565684  2.958714 33.352861  2.451366
  Thomas-Fermi vector in A             =   2.668124
 
 Write flags
   LWAVE        =      F    write WAVECAR
   LDOWNSAMPLE  =      F    k-point downsampling of WAVECAR
   LCHARG       =      T    write CHGCAR
   LVTOT        =      F    write LOCPOT, total local potential
   LVHAR        =      F    write LOCPOT, Hartree potential only
   LELF         =      F    write electronic localiz. function (ELF)
   LORBIT       =     10    0 simple, 1 ext, 2 COOP (PROOUT), +10 PAW based schemes


 Dipole corrections
   LMONO  =      F    monopole corrections only (constant potential shift)
   LDIPOL =      F    correct potential (dipole corrections)
   IDIPOL =      0    1-x, 2-y, 3-z, 4-all directions 
   EPSILON=  1.0000000 bulk dielectric constant

 Exchange correlation treatment:
   GGA     =    --    GGA type
   LEXCH   =     8    internal setting for exchange type
   VOSKOWN=      0    Vosko Wilk Nusair interpolation
   LHFCALC =     F    Hartree Fock is set to
   LHFONE  =     F    Hartree Fock one center treatment
   AEXX    =    0.0000 exact exchange contribution

 Linear response parameters
   LEPSILON=     F    determine dielectric tensor
   LRPA    =     F    only Hartree local field effects (RPA)
   LNABLA  =     F    use nabla operator in PAW spheres
   LVEL    =     F    velocity operator in full k-point grid
   LINTERFAST=   F  fast interpolation
   KINTER  =     0    interpolate to denser k-point grid
   CSHIFT  =0.1000    complex shift for real part using Kramers Kronig
   OMEGAMAX=  -1.0    maximum frequency
   DEG_THRESHOLD= 0.2000000E-02 threshold for treating states as degnerate
   RTIME   =   -0.100 relaxation time in fs
  (WPLASMAI=    0.000 imaginary part of plasma frequency in eV, 0.658/RTIME)
   DFIELD  = 0.0000000 0.0000000 0.0000000 field for delta impulse in time
 
 Orbital magnetization related:
   ORBITALMAG=     F  switch on orbital magnetization
   LCHIMAG   =     F  perturbation theory with respect to B field
   DQ        =  0.001000  dq finite difference perturbation B field
   LLRAUG    =     F  two centre corrections for induced B field



--------------------------------------------------------------------------------------------------------


 Static calculation
 charge density and potential will be updated during run
 spin polarized calculation
 Variant of blocked Davidson
 Davidson routine will perform the subspace rotation
 perform sub-space diagonalisation
    after iterative eigenvector-optimisation
 modified Broyden-mixing scheme, WC =      100.0
 initial mixing is a Kerker type mixing with AMIX =  0.1800 and BMIX =      0.0025
 Hartree-type preconditioning will be used
 using additional bands           34
 real space projection scheme for non local part
 use partial core corrections
 calculate Harris-corrections to forces 
   (improved forces if not selfconsistent)
 use gradient corrections 
 use of overlap-Matrix (Vanderbilt PP)
 Methfessel and Paxton  Order N= 1 SIGMA  =   0.10


--------------------------------------------------------------------------------------------------------


  energy-cutoff  :      500.00
  volume of cell :      214.92
      direct lattice vectors                 reciprocal lattice vectors
     6.038450242  0.000000000  0.000000000     0.165605405  0.000000000  0.000000000
     0.000000000  6.038450242  0.000000000     0.000000000  0.165605405  0.000000000
     0.000000000  0.000000000  5.894121422     0.000000000  0.000000000  0.169660570

  length of vectors
     6.038450242  6.038450242  5.894121422     0.165605405  0.165605405  0.169660570


 
 k-points in units of 2pi/SCALE and weight: Ni7CoMn5CrSn2                           
   0.06261954  0.06261954  0.06415290       0.016
   0.18785863  0.06261954  0.06415290       0.031
   0.31309772  0.06261954  0.06415290       0.031
   0.43833681  0.06261954  0.06415290       0.031
   0.18785863  0.18785863  0.06415290       0.016
   0.31309772  0.18785863  0.06415290       0.031
   0.43833681  0.18785863  0.06415290       0.031
   0.31309772  0.31309772  0.06415290       0.016
   0.43833681  0.31309772  0.06415290       0.031
   0.43833681  0.43833681  0.06415290       0.016
   0.06261954  0.06261954  0.19245871       0.016
   0.18785863  0.06261954  0.19245871       0.031
   0.31309772  0.06261954  0.19245871       0.031
   0.43833681  0.06261954  0.19245871       0.031
   0.18785863  0.18785863  0.19245871       0.016
   0.31309772  0.18785863  0.19245871       0.031
   0.43833681  0.18785863  0.19245871       0.031
   0.31309772  0.31309772  0.19245871       0.016
   0.43833681  0.31309772  0.19245871       0.031
   0.43833681  0.43833681  0.19245871       0.016
   0.06261954  0.06261954  0.32076452       0.016
   0.18785863  0.06261954  0.32076452       0.031
   0.31309772  0.06261954  0.32076452       0.031
   0.43833681  0.06261954  0.32076452       0.031
   0.18785863  0.18785863  0.32076452       0.016
   0.31309772  0.18785863  0.32076452       0.031
   0.43833681  0.18785863  0.32076452       0.031
   0.31309772  0.31309772  0.32076452       0.016
   0.43833681  0.31309772  0.32076452       0.031
   0.43833681  0.43833681  0.32076452       0.016
   0.06261954  0.06261954  0.44907032       0.016
   0.18785863  0.06261954  0.44907032       0.031
   0.31309772  0.06261954  0.44907032       0.031
   0.43833681  0.06261954  0.44907032       0.031
   0.18785863  0.18785863  0.44907032       0.016
   0.31309772  0.18785863  0.44907032       0.031
   0.43833681  0.18785863  0.44907032       0.031
   0.31309772  0.31309772  0.44907032       0.016
   0.43833681  0.31309772  0.44907032       0.031
   0.43833681  0.43833681  0.44907032       0.016
 
 k-points in reciprocal lattice and weights: Ni7CoMn5CrSn2                           
   0.06250000  0.06250000  0.06250000       0.016
   0.18750000  0.06250000  0.06250000       0.031
   0.31250000  0.06250000  0.06250000       0.031
   0.43750000  0.06250000  0.06250000       0.031
   0.18750000  0.18750000  0.06250000       0.016
   0.31250000  0.18750000  0.06250000       0.031
   0.43750000  0.18750000  0.06250000       0.031
   0.31250000  0.31250000  0.06250000       0.016
   0.43750000  0.31250000  0.06250000       0.031
   0.43750000  0.43750000  0.06250000       0.016
   0.06250000  0.06250000  0.18750000       0.016
   0.18750000  0.06250000  0.18750000       0.031
   0.31250000  0.06250000  0.18750000       0.031
   0.43750000  0.06250000  0.18750000       0.031
   0.18750000  0.18750000  0.18750000       0.016
   0.31250000  0.18750000  0.18750000       0.031
   0.43750000  0.18750000  0.18750000       0.031
   0.31250000  0.31250000  0.18750000       0.016
   0.43750000  0.31250000  0.18750000       0.031
   0.43750000  0.43750000  0.18750000       0.016
   0.06250000  0.06250000  0.31250000       0.016
   0.18750000  0.06250000  0.31250000       0.031
   0.31250000  0.06250000  0.31250000       0.031
   0.43750000  0.06250000  0.31250000       0.031
   0.18750000  0.18750000  0.31250000       0.016
   0.31250000  0.18750000  0.31250000       0.031
   0.43750000  0.18750000  0.31250000       0.031
   0.31250000  0.31250000  0.31250000       0.016
   0.43750000  0.31250000  0.31250000       0.031
   0.43750000  0.43750000  0.31250000       0.016
   0.06250000  0.06250000  0.43750000       0.016
   0.18750000  0.06250000  0.43750000       0.031
   0.31250000  0.06250000  0.43750000       0.031
   0.43750000  0.06250000  0.43750000       0.031
   0.18750000  0.18750000  0.43750000       0.016
   0.31250000  0.18750000  0.43750000       0.031
   0.43750000  0.18750000  0.43750000       0.031
   0.31250000  0.31250000  0.43750000       0.016
   0.43750000  0.31250000  0.43750000       0.031
   0.43750000  0.43750000  0.43750000       0.016
 
 position of ions in fractional coordinates (direct lattice) 
   0.50000000  0.50000000  0.50000000
   0.00000000  0.00000000  0.50000000
   0.50000000  0.50000000  0.00000000
   0.00000000  0.00000000  0.00000000
   0.25000000  0.25000000  0.75000000
   0.25000000  0.75000000  0.25000000
   0.75000000  0.25000000  0.25000000
   0.75000000  0.75000000  0.75000000
   0.50000000  0.00000000  0.00000000
   0.00000000  0.50000000  0.00000000
   0.50000000  0.00000000  0.50000000
   0.00000000  0.50000000  0.50000000
   0.25000000  0.25000000  0.25000000
   0.75000000  0.25000000  0.75000000
   0.25000000  0.75000000  0.75000000
   0.75000000  0.75000000  0.25000000
 
 position of ions in cartesian coordinates  (Angst):
   3.01922512  3.01922512  2.94706071
   0.00000000  0.00000000  2.94706071
   3.01922512  3.01922512  0.00000000
   0.00000000  0.00000000  0.00000000
   1.50961256  1.50961256  4.42059107
   1.50961256  4.52883768  1.47353036
   4.52883768  1.50961256  1.47353036
   4.52883768  4.52883768  4.42059107
   3.01922512  0.00000000  0.00000000
   0.00000000  3.01922512  0.00000000
   3.01922512  0.00000000  2.94706071
   0.00000000  3.01922512  2.94706071
   1.50961256  1.50961256  1.47353036
   4.52883768  1.50961256  4.42059107
   1.50961256  4.52883768  4.42059107
   4.52883768  4.52883768  1.47353036
 


--------------------------------------------------------------------------------------------------------


 k-point   1 :   0.0625 0.0625 0.0625  plane waves:    5451
 k-point   2 :   0.1875 0.0625 0.0625  plane waves:    5457
 k-point   3 :   0.3125 0.0625 0.0625  plane waves:    5456
 k-point   4 :   0.4375 0.0625 0.0625  plane waves:    5449
 k-point   5 :   0.1875 0.1875 0.0625  plane waves:    5442
 k-point   6 :   0.3125 0.1875 0.0625  plane waves:    5452
 k-point   7 :   0.4375 0.1875 0.0625  plane waves:    5463
 k-point   8 :   0.3125 0.3125 0.0625  plane waves:    5455
 k-point   9 :   0.4375 0.3125 0.0625  plane waves:    5463
 k-point  10 :   0.4375 0.4375 0.0625  plane waves:    5457
 k-point  11 :   0.0625 0.0625 0.1875  plane waves:    5453
 k-point  12 :   0.1875 0.0625 0.1875  plane waves:    5453
 k-point  13 :   0.3125 0.0625 0.1875  plane waves:    5457
 k-point  14 :   0.4375 0.0625 0.1875  plane waves:    5457
 k-point  15 :   0.1875 0.1875 0.1875  plane waves:    5456
 k-point  16 :   0.3125 0.1875 0.1875  plane waves:    5458
 k-point  17 :   0.4375 0.1875 0.1875  plane waves:    5453
 k-point  18 :   0.3125 0.3125 0.1875  plane waves:    5451
 k-point  19 :   0.4375 0.3125 0.1875  plane waves:    5456
 k-point  20 :   0.4375 0.4375 0.1875  plane waves:    5456
 k-point  21 :   0.0625 0.0625 0.3125  plane waves:    5445
 k-point  22 :   0.1875 0.0625 0.3125  plane waves:    5446
 k-point  23 :   0.3125 0.0625 0.3125  plane waves:    5441
 k-point  24 :   0.4375 0.0625 0.3125  plane waves:    5442
 k-point  25 :   0.1875 0.1875 0.3125  plane waves:    5450
 k-point  26 :   0.3125 0.1875 0.3125  plane waves:    5458
 k-point  27 :   0.4375 0.1875 0.3125  plane waves:    5460
 k-point  28 :   0.3125 0.3125 0.3125  plane waves:    5471
 k-point  29 :   0.4375 0.3125 0.3125  plane waves:    5470
 k-point  30 :   0.4375 0.4375 0.3125  plane waves:    5470
 k-point  31 :   0.0625 0.0625 0.4375  plane waves:    5451
 k-point  32 :   0.1875 0.0625 0.4375  plane waves:    5446
 k-point  33 :   0.3125 0.0625 0.4375  plane waves:    5439
 k-point  34 :   0.4375 0.0625 0.4375  plane waves:    5444
 k-point  35 :   0.1875 0.1875 0.4375  plane waves:    5467
 k-point  36 :   0.3125 0.1875 0.4375  plane waves:    5461
 k-point  37 :   0.4375 0.1875 0.4375  plane waves:    5458
 k-point  38 :   0.3125 0.3125 0.4375  plane waves:    5479
 k-point  39 :   0.4375 0.3125 0.4375  plane waves:    5487
 k-point  40 :   0.4375 0.4375 0.4375  plane waves:    5485

 maximum and minimum number of plane-waves per node :       561      516

 maximum number of plane-waves:      5487
 maximum index in each direction: 
   IXMAX=   10   IYMAX=   10   IZMAX=   10
   IXMIN=  -11   IYMIN=  -11   IZMIN=  -11


 real space projection operators:
  total allocation   :      15230.03 KBytes
  max/ min on nodes  :       1610.38       1330.66


 parallel 3D FFT for wavefunctions:
    minimum data exchange during FFTs selected (reduces bandwidth)
 parallel 3D FFT for charge:
    minimum data exchange during FFTs selected (reduces bandwidth)


 total amount of memory used by VASP MPI-rank0    55049. kBytes
=======================================================================

   base      :      30000. kBytes
   nonlr-proj:       4670. kBytes
   fftplans  :       4343. kBytes
   grid      :       3686. kBytes
   one-center:         62. kBytes
   wavefun   :      12288. kBytes
 
     INWAV:  cpu time    0.0000: real time    0.0001
 Broyden mixing: mesh for mixing (old mesh)
   NGX = 23   NGY = 23   NGZ = 21
  (NGX  = 96   NGY  = 96   NGZ  = 96)
  gives a total of  11109 points

 initial charge density was supplied:
 charge density of overlapping atoms calculated
 number of electron     188.0000000 magnetization      23.2000000
 keeping initial charge density in first step


--------------------------------------------------------------------------------------------------------


 Maximum index for non-local projection operator         1019
 Maximum index for augmentation-charges         5615 (set IRDMAX)


--------------------------------------------------------------------------------------------------------


 First call to EWALD:  gamma=   0.296
 Maximum number of real-space cells 3x 3x 3
 Maximum number of reciprocal cells 3x 3x 3

    FEWALD:  cpu time    0.0000: real time    0.0015


--------------------------------------- Iteration      1(   1)  ---------------------------------------


    POTLOK:  cpu time    0.1240: real time    0.1754
    SETDIJ:  cpu time    0.2920: real time    0.2925
     EDDAV:  cpu time   11.8047: real time   11.8450
       DOS:  cpu time    0.0080: real time    0.0067
    --------------------------------------------
      LOOP:  cpu time   12.2288: real time   12.3197

 eigenvalue-minimisations  : 21032
 total energy-change (2. order) : 0.2635286E+04  (-0.9378519E+04)
 number of electron     188.0000000 magnetization      23.2000000
 augmentation part      188.0000000 magnetization      23.2000000

 Free energy of the ion-electron system (eV)
  ---------------------------------------------------
  alpha Z        PSCENC =      1104.49108591
  Ewald energy   TEWEN  =    -20764.81055269
  -Hartree energ DENC   =     -9530.27938944
  -exchange      EXHF   =         0.00000000
  -V(xc)+E(xc)   XCENC  =       467.25741520
  PAW double counting   =     26140.62212847   -27156.40297129
  entropy T*S    EENTRO =        -0.00046517
  eigenvalues    EBANDS =       546.21956707
  atomic energy  EATOM  =     31828.18944640
  Solvation  Ediel_sol  =         0.00000000
  ---------------------------------------------------
  free energy    TOTEN  =      2635.28626448 eV

  energy without entropy =     2635.28672964  energy(sigma->0) =     2635.28641953


--------------------------------------------------------------------------------------------------------




--------------------------------------- Iteration      1(   2)  ---------------------------------------


     EDDAV:  cpu time   11.5007: real time   11.5399
       DOS:  cpu time    0.0080: real time    0.0076
    --------------------------------------------
      LOOP:  cpu time   11.5087: real time   11.5474

 eigenvalue-minimisations  : 20480
 total energy-change (2. order) :-0.2396283E+04  (-0.2295861E+04)
 number of electron     188.0000000 magnetization      23.2000000
 augmentation part      188.0000000 magnetization      23.2000000

 Free energy of the ion-electron system (eV)
  ---------------------------------------------------
  alpha Z        PSCENC =      1104.49108591
  Ewald energy   TEWEN  =    -20764.81055269
  -Hartree energ DENC   =     -9530.27938944
  -exchange      EXHF   =         0.00000000
  -V(xc)+E(xc)   XCENC  =       467.25741520
  PAW double counting   =     26140.62212847   -27156.40297129
  entropy T*S    EENTRO =         0.00228473
  eigenvalues    EBANDS =     -1850.06629638
  atomic energy  EATOM  =     31828.18944640
  Solvation  Ediel_sol  =         0.00000000
  ---------------------------------------------------
  free energy    TOTEN  =       239.00315092 eV

  energy without entropy =      239.00086619  energy(sigma->0) =      239.00238934


--------------------------------------------------------------------------------------------------------




--------------------------------------- Iteration      1(   3)  ---------------------------------------


     EDDAV:  cpu time   11.7167: real time   11.7552
       DOS:  cpu time    0.0080: real time    0.0076
    --------------------------------------------
      LOOP:  cpu time   11.7247: real time   11.7628

 eigenvalue-minimisations  : 20992
 total energy-change (2. order) :-0.3379874E+03  (-0.2948570E+03)
 number of electron     188.0000000 magnetization      23.2000000
 augmentation part      188.0000000 magnetization      23.2000000

 Free energy of the ion-electron system (eV)
  ---------------------------------------------------
  alpha Z        PSCENC =      1104.49108591
  Ewald energy   TEWEN  =    -20764.81055269
  -Hartree energ DENC   =     -9530.27938944
  -exchange      EXHF   =         0.00000000
  -V(xc)+E(xc)   XCENC  =       467.25741520
  PAW double counting   =     26140.62212847   -27156.40297129
  entropy T*S    EENTRO =        -0.00239356
  eigenvalues    EBANDS =     -2188.04903391
  atomic energy  EATOM  =     31828.18944640
  Solvation  Ediel_sol  =         0.00000000
  ---------------------------------------------------
  free energy    TOTEN  =       -98.98426490 eV

  energy without entropy =      -98.98187133  energy(sigma->0) =      -98.98346704


--------------------------------------------------------------------------------------------------------




--------------------------------------- Iteration      1(   4)  ---------------------------------------


     EDDAV:  cpu time   12.3808: real time   12.4246
       DOS:  cpu time    0.0080: real time    0.0078
    --------------------------------------------
      LOOP:  cpu time   12.3888: real time   12.4324

 eigenvalue-minimisations  : 22512
 total energy-change (2. order) :-0.2167814E+02  (-0.2116785E+02)
 number of electron     188.0000000 magnetization      23.2000000
 augmentation part      188.0000000 magnetization      23.2000000

 Free energy of the ion-electron system (eV)
  ---------------------------------------------------
  alpha Z        PSCENC =      1104.49108591
  Ewald energy   TEWEN  =    -20764.81055269
  -Hartree energ DENC   =     -9530.27938944
  -exchange      EXHF   =         0.00000000
  -V(xc)+E(xc)   XCENC  =       467.25741520
  PAW double counting   =     26140.62212847   -27156.40297129
  entropy T*S    EENTRO =         0.00126286
  eigenvalues    EBANDS =     -2209.73083411
  atomic energy  EATOM  =     31828.18944640
  Solvation  Ediel_sol  =         0.00000000
  ---------------------------------------------------
  free energy    TOTEN  =      -120.66240867 eV

  energy without entropy =     -120.66367153  energy(sigma->0) =     -120.66282963


--------------------------------------------------------------------------------------------------------




--------------------------------------- Iteration      1(   5)  ---------------------------------------


     EDDAV:  cpu time   12.3128: real time   12.3523
       DOS:  cpu time    0.0080: real time    0.0081
    --------------------------------------------
      LOOP:  cpu time   12.3208: real time   12.3604

 eigenvalue-minimisations  : 22384
 total energy-change (2. order) :-0.3741782E+00  (-0.3733691E+00)
 number of electron     188.0000000 magnetization      23.2000000
 augmentation part      188.0000000 magnetization      23.2000000

 Free energy of the ion-electron system (eV)
  ---------------------------------------------------
  alpha Z        PSCENC =      1104.49108591
  Ewald energy   TEWEN  =    -20764.81055269
  -Hartree energ DENC   =     -9530.27938944
  -exchange      EXHF   =         0.00000000
  -V(xc)+E(xc)   XCENC  =       467.25741520
  PAW double counting   =     26140.62212847   -27156.40297129
  entropy T*S    EENTRO =         0.00130257
  eigenvalues    EBANDS =     -2210.10505203
  atomic energy  EATOM  =     31828.18944640
  Solvation  Ediel_sol  =         0.00000000
  ---------------------------------------------------
  free energy    TOTEN  =      -121.03658689 eV

  energy without entropy =     -121.03788945  energy(sigma->0) =     -121.03702108


--------------------------------------------------------------------------------------------------------




--------------------------------------- Iteration      1(   6)  ---------------------------------------


     EDDAV:  cpu time   12.1328: real time   12.1748
       DOS:  cpu time    0.0080: real time    0.0080
    CHARGE:  cpu time    0.5240: real time    0.5278
    MIXING:  cpu time    0.0040: real time    0.0032
    --------------------------------------------
      LOOP:  cpu time   12.6688: real time   12.7138

 eigenvalue-minimisations  : 21976
 total energy-change (2. order) :-0.9425661E-02  (-0.9425291E-02)
 number of electron     188.0000009 magnetization      22.9880602
 augmentation part       96.3819914 magnetization      16.9518311

 Broyden mixing:
  rms(total) = 0.36540E+01    rms(broyden)= 0.36527E+01
  rms(prec ) = 0.54680E+01
  weight for this iteration     100.00

 Free energy of the ion-electron system (eV)
  ---------------------------------------------------
  alpha Z        PSCENC =      1104.49108591
  Ewald energy   TEWEN  =    -20764.81055269
  -Hartree energ DENC   =     -9530.27938944
  -exchange      EXHF   =         0.00000000
  -V(xc)+E(xc)   XCENC  =       467.25741520
  PAW double counting   =     26140.62212847   -27156.40297129
  entropy T*S    EENTRO =         0.00130466
  eigenvalues    EBANDS =     -2210.11447978
  atomic energy  EATOM  =     31828.18944640
  Solvation  Ediel_sol  =         0.00000000
  ---------------------------------------------------
  free energy    TOTEN  =      -121.04601255 eV

  energy without entropy =     -121.04731720  energy(sigma->0) =     -121.04644743


--------------------------------------------------------------------------------------------------------




--------------------------------------- Iteration      1(   7)  ---------------------------------------


    POTLOK:  cpu time    0.0760: real time    0.0765
    SETDIJ:  cpu time    0.2480: real time    0.2479
     EDDAV:  cpu time   12.1848: real time   12.2276
       DOS:  cpu time    0.0080: real time    0.0080
    CHARGE:  cpu time    0.5200: real time    0.5196
    MIXING:  cpu time    0.0040: real time    0.0030
    --------------------------------------------
      LOOP:  cpu time   13.0408: real time   13.0826

 eigenvalue-minimisations  : 21984
 total energy-change (2. order) : 0.9415567E+01  (-0.3864549E+01)
 number of electron     188.0000010 magnetization      22.7445033
 augmentation part      102.4909345 magnetization      17.4778215

 Broyden mixing:
  rms(total) = 0.32982E+01    rms(broyden)= 0.32979E+01
  rms(prec ) = 0.55835E+01
  weight for this iteration     100.00

 eigenvalues of (default mixing * dielectric matrix)
  average eigenvalue GAMMA=   0.5469
  0.5469

 Free energy of the ion-electron system (eV)
  ---------------------------------------------------
  alpha Z        PSCENC =      1104.49108591
  Ewald energy   TEWEN  =    -20764.81055269
  -Hartree energ DENC   =     -9258.86970950
  -exchange      EXHF   =         0.00000000
  -V(xc)+E(xc)   XCENC  =       457.06169835
  PAW double counting   =     26355.52588453   -27345.96516948
  entropy T*S    EENTRO =        -0.00485266
  eigenvalues    EBANDS =     -2487.24827610
  atomic energy  EATOM  =     31828.18944640
  Solvation  Ediel_sol  =         0.00000000
  ---------------------------------------------------
  free energy    TOTEN  =      -111.63044524 eV

  energy without entropy =     -111.62559258  energy(sigma->0) =     -111.62882769


--------------------------------------------------------------------------------------------------------




--------------------------------------- Iteration      1(   8)  ---------------------------------------


    POTLOK:  cpu time    0.0760: real time    0.0765
    SETDIJ:  cpu time    0.2400: real time    0.2437
     EDDAV:  cpu time   12.3168: real time   12.3558
       DOS:  cpu time    0.0080: real time    0.0080
    CHARGE:  cpu time    0.5200: real time    0.5235
    MIXING:  cpu time    0.0040: real time    0.0026
    --------------------------------------------
      LOOP:  cpu time   13.1648: real time   13.2102

 eigenvalue-minimisations  : 22240
 total energy-change (2. order) :-0.2233961E+01  (-0.2955130E+01)
 number of electron     188.0000010 magnetization      22.1971461
 augmentation part      103.1729619 magnetization      17.3891423

 Broyden mixing:
  rms(total) = 0.34680E+01    rms(broyden)= 0.34675E+01
  rms(prec ) = 0.58714E+01
  weight for this iteration     100.00

 eigenvalues of (default mixing * dielectric matrix)
  average eigenvalue GAMMA=   0.7304
  1.2267  0.2341

 Free energy of the ion-electron system (eV)
  ---------------------------------------------------
  alpha Z        PSCENC =      1104.49108591
  Ewald energy   TEWEN  =    -20764.81055269
  -Hartree energ DENC   =     -9241.32408089
  -exchange      EXHF   =         0.00000000
  -V(xc)+E(xc)   XCENC  =       456.29053342
  PAW double counting   =     26567.30603211   -27558.91027247
  entropy T*S    EENTRO =         0.00188303
  eigenvalues    EBANDS =     -2505.09848057
  atomic energy  EATOM  =     31828.18944640
  Solvation  Ediel_sol  =         0.00000000
  ---------------------------------------------------
  free energy    TOTEN  =      -113.86440575 eV

  energy without entropy =     -113.86628877  energy(sigma->0) =     -113.86503342


--------------------------------------------------------------------------------------------------------




--------------------------------------- Iteration      1(   9)  ---------------------------------------


    POTLOK:  cpu time    0.0760: real time    0.0766
    SETDIJ:  cpu time    0.2520: real time    0.2515
     EDDAV:  cpu time   12.2048: real time   12.2471
       DOS:  cpu time    0.0080: real time    0.0079
    CHARGE:  cpu time    0.5160: real time    0.5184
    MIXING:  cpu time    0.0040: real time    0.0030
    --------------------------------------------
      LOOP:  cpu time   13.0608: real time   13.1044

 eigenvalue-minimisations  : 22080
 total energy-change (2. order) : 0.4696671E+01  (-0.3392604E+00)
 number of electron     188.0000010 magnetization      22.1739384
 augmentation part      103.5295899 magnetization      16.9202315

 Broyden mixing:
  rms(total) = 0.16329E+01    rms(broyden)= 0.16326E+01
  rms(prec ) = 0.21923E+01
  weight for this iteration     100.00

 eigenvalues of (default mixing * dielectric matrix)
  average eigenvalue GAMMA=   0.6690
  1.3771  0.3462  0.2837

 Free energy of the ion-electron system (eV)
  ---------------------------------------------------
  alpha Z        PSCENC =      1104.49108591
  Ewald energy   TEWEN  =    -20764.81055269
  -Hartree energ DENC   =     -9212.45186536
  -exchange      EXHF   =         0.00000000
  -V(xc)+E(xc)   XCENC  =       455.32690833
  PAW double counting   =     26966.96330847   -27961.88025972
  entropy T*S    EENTRO =         0.00167916
  eigenvalues    EBANDS =     -2524.99748491
  atomic energy  EATOM  =     31828.18944640
  Solvation  Ediel_sol  =         0.00000000
  ---------------------------------------------------
  free energy    TOTEN  =      -109.16773441 eV

  energy without entropy =     -109.16941357  energy(sigma->0) =     -109.16829413


--------------------------------------------------------------------------------------------------------




--------------------------------------- Iteration      1(  10)  ---------------------------------------


    POTLOK:  cpu time    0.0760: real time    0.0763
    SETDIJ:  cpu time    0.2440: real time    0.2453
     EDDAV:  cpu time   12.5288: real time   12.5718
       DOS:  cpu time    0.0080: real time    0.0080
    CHARGE:  cpu time    0.5160: real time    0.5182
    MIXING:  cpu time    0.0040: real time    0.0021
    --------------------------------------------
      LOOP:  cpu time   13.3768: real time   13.4217

 eigenvalue-minimisations  : 22824
 total energy-change (2. order) : 0.2083761E+00  (-0.8361227E-01)
 number of electron     188.0000010 magnetization      22.1407993
 augmentation part      103.3293967 magnetization      17.1651378

 Broyden mixing:
  rms(total) = 0.14261E+01    rms(broyden)= 0.14261E+01
  rms(prec ) = 0.17936E+01
  weight for this iteration     100.00

 eigenvalues of (default mixing * dielectric matrix)
  average eigenvalue GAMMA=   0.6787
  1.5854  0.4990  0.2300  0.4006

 Free energy of the ion-electron system (eV)
  ---------------------------------------------------
  alpha Z        PSCENC =      1104.49108591
  Ewald energy   TEWEN  =    -20764.81055269
  -Hartree energ DENC   =     -9209.03713480
  -exchange      EXHF   =         0.00000000
  -V(xc)+E(xc)   XCENC  =       455.33881875
  PAW double counting   =     27138.66753807   -28137.19845324
  entropy T*S    EENTRO =        -0.00201182
  eigenvalues    EBANDS =     -2524.59809488
  atomic energy  EATOM  =     31828.18944640
  Solvation  Ediel_sol  =         0.00000000
  ---------------------------------------------------
  free energy    TOTEN  =      -108.95935830 eV

  energy without entropy =     -108.95734648  energy(sigma->0) =     -108.95868769


--------------------------------------------------------------------------------------------------------




--------------------------------------- Iteration      1(  11)  ---------------------------------------


    POTLOK:  cpu time    0.0760: real time    0.0779
    SETDIJ:  cpu time    0.2440: real time    0.2453
     EDDAV:  cpu time   12.4528: real time   12.4955
       DOS:  cpu time    0.0080: real time    0.0079
    CHARGE:  cpu time    0.5240: real time    0.5252
    MIXING:  cpu time    0.0040: real time    0.0038
    --------------------------------------------
      LOOP:  cpu time   13.3088: real time   13.3556

 eigenvalue-minimisations  : 22576
 total energy-change (2. order) : 0.5650099E-01  (-0.4213617E-01)
 number of electron     188.0000010 magnetization      22.2721414
 augmentation part      103.4683774 magnetization      17.2467344

 Broyden mixing:
  rms(total) = 0.10138E+01    rms(broyden)= 0.10138E+01
  rms(prec ) = 0.10974E+01
  weight for this iteration     100.00

 eigenvalues of (default mixing * dielectric matrix)
  average eigenvalue GAMMA=   1.6362
  5.4967  1.2041  0.9581  0.2853  0.2367

 Free energy of the ion-electron system (eV)
  ---------------------------------------------------
  alpha Z        PSCENC =      1104.49108591
  Ewald energy   TEWEN  =    -20764.81055269
  -Hartree energ DENC   =     -9195.98374452
  -exchange      EXHF   =         0.00000000
  -V(xc)+E(xc)   XCENC  =       455.20834090
  PAW double counting   =     27558.05791132   -28562.21158676
  entropy T*S    EENTRO =        -0.00126721
  eigenvalues    EBANDS =     -2531.84249066
  atomic energy  EATOM  =     31828.18944640
  Solvation  Ediel_sol  =         0.00000000
  ---------------------------------------------------
  free energy    TOTEN  =      -108.90285730 eV

  energy without entropy =     -108.90159010  energy(sigma->0) =     -108.90243490


--------------------------------------------------------------------------------------------------------




--------------------------------------- Iteration      1(  12)  ---------------------------------------


    POTLOK:  cpu time    0.0760: real time    0.0761
    SETDIJ:  cpu time    0.2480: real time    0.2498
     EDDAV:  cpu time   12.1328: real time   12.1713
       DOS:  cpu time    0.0080: real time    0.0080
    CHARGE:  cpu time    0.5320: real time    0.5340
    MIXING:  cpu time    0.0040: real time    0.0029
    --------------------------------------------
      LOOP:  cpu time   13.0008: real time   13.0421

 eigenvalue-minimisations  : 21744
 total energy-change (2. order) :-0.2189735E+00  (-0.9389931E-01)
 number of electron     188.0000010 magnetization      22.4543792
 augmentation part      103.3012920 magnetization      17.7624589

 Broyden mixing:
  rms(total) = 0.33295E+00    rms(broyden)= 0.33285E+00
  rms(prec ) = 0.50212E+00
  weight for this iteration     100.00

 eigenvalues of (default mixing * dielectric matrix)
  average eigenvalue GAMMA=   1.5246
  4.9079  1.6688  1.1893  0.8616  0.2836  0.2363

 Free energy of the ion-electron system (eV)
  ---------------------------------------------------
  alpha Z        PSCENC =      1104.49108591
  Ewald energy   TEWEN  =    -20764.81055269
  -Hartree energ DENC   =     -9170.21501020
  -exchange      EXHF   =         0.00000000
  -V(xc)+E(xc)   XCENC  =       455.76722393
  PAW double counting   =     29052.52766986   -30079.10810190
  entropy T*S    EENTRO =        -0.00310871
  eigenvalues    EBANDS =     -2535.96048341
  atomic energy  EATOM  =     31828.18944640
  Solvation  Ediel_sol  =         0.00000000
  ---------------------------------------------------
  free energy    TOTEN  =      -109.12183080 eV

  energy without entropy =     -109.11872209  energy(sigma->0) =     -109.12079456


--------------------------------------------------------------------------------------------------------




--------------------------------------- Iteration      1(  13)  ---------------------------------------


    POTLOK:  cpu time    0.0760: real time    0.0768
    SETDIJ:  cpu time    0.2520: real time    0.2538
     EDDAV:  cpu time   12.0448: real time   12.0844
       DOS:  cpu time    0.0080: real time    0.0077
    CHARGE:  cpu time    0.5200: real time    0.5218
    MIXING:  cpu time    0.0040: real time    0.0036
    --------------------------------------------
      LOOP:  cpu time   12.9048: real time   12.9481

 eigenvalue-minimisations  : 21568
 total energy-change (2. order) : 0.2227112E-01  (-0.1818099E-01)
 number of electron     188.0000010 magnetization      22.7542257
 augmentation part      103.3992350 magnetization      18.0024962

 Broyden mixing:
  rms(total) = 0.20212E+00    rms(broyden)= 0.20211E+00
  rms(prec ) = 0.25259E+00
  weight for this iteration     100.00

 eigenvalues of (default mixing * dielectric matrix)
  average eigenvalue GAMMA=   1.8056
  4.5566  4.5566  1.1839  0.9110  0.9110  0.2835  0.2363

 Free energy of the ion-electron system (eV)
  ---------------------------------------------------
  alpha Z        PSCENC =      1104.49108591
  Ewald energy   TEWEN  =    -20764.81055269
  -Hartree energ DENC   =     -9170.53862004
  -exchange      EXHF   =         0.00000000
  -V(xc)+E(xc)   XCENC  =       455.81559174
  PAW double counting   =     28986.47480353   -30012.38235575
  entropy T*S    EENTRO =        -0.00192797
  eigenvalues    EBANDS =     -2536.33703082
  atomic energy  EATOM  =     31828.18944640
  Solvation  Ediel_sol  =         0.00000000
  ---------------------------------------------------
  free energy    TOTEN  =      -109.09955968 eV

  energy without entropy =     -109.09763171  energy(sigma->0) =     -109.09891702


--------------------------------------------------------------------------------------------------------




--------------------------------------- Iteration      1(  14)  ---------------------------------------


    POTLOK:  cpu time    0.0760: real time    0.0760
    SETDIJ:  cpu time    0.2480: real time    0.2527
     EDDAV:  cpu time   11.8967: real time   11.9331
       DOS:  cpu time    0.0080: real time    0.0077
    CHARGE:  cpu time    0.5200: real time    0.5246
    MIXING:  cpu time    0.0040: real time    0.0030
    --------------------------------------------
      LOOP:  cpu time   12.7528: real time   12.7971

 eigenvalue-minimisations  : 21280
 total energy-change (2. order) :-0.2379239E-02  (-0.4522903E-02)
 number of electron     188.0000010 magnetization      22.8288628
 augmentation part      103.3419001 magnetization      18.1114182

 Broyden mixing:
  rms(total) = 0.92449E-01    rms(broyden)= 0.92446E-01
  rms(prec ) = 0.13253E+00
  weight for this iteration     100.00

 eigenvalues of (default mixing * dielectric matrix)
  average eigenvalue GAMMA=   1.8736
  5.8845  4.3039  1.3425  1.0369  1.0369  0.8644  0.2835  0.2363

 Free energy of the ion-electron system (eV)
  ---------------------------------------------------
  alpha Z        PSCENC =      1104.49108591
  Ewald energy   TEWEN  =    -20764.81055269
  -Hartree energ DENC   =     -9170.14948609
  -exchange      EXHF   =         0.00000000
  -V(xc)+E(xc)   XCENC  =       456.12562049
  PAW double counting   =     29113.94108904   -30142.90333952
  entropy T*S    EENTRO =        -0.00267173
  eigenvalues    EBANDS =     -2533.98313074
  atomic energy  EATOM  =     31828.18944640
  Solvation  Ediel_sol  =         0.00000000
  ---------------------------------------------------
  free energy    TOTEN  =      -109.10193892 eV

  energy without entropy =     -109.09926719  energy(sigma->0) =     -109.10104834


--------------------------------------------------------------------------------------------------------




--------------------------------------- Iteration      1(  15)  ---------------------------------------


    POTLOK:  cpu time    0.0760: real time    0.0770
    SETDIJ:  cpu time    0.2560: real time    0.2548
     EDDAV:  cpu time   12.9488: real time   12.9931
       DOS:  cpu time    0.0080: real time    0.0079
    CHARGE:  cpu time    0.5280: real time    0.5290
    MIXING:  cpu time    0.0040: real time    0.0041
    --------------------------------------------
      LOOP:  cpu time   13.8209: real time   13.8659

 eigenvalue-minimisations  : 23704
 total energy-change (2. order) : 0.8136880E-03  (-0.5681159E-03)
 number of electron     188.0000010 magnetization      22.8820400
 augmentation part      103.3602247 magnetization      18.1663707

 Broyden mixing:
  rms(total) = 0.34399E-01    rms(broyden)= 0.34389E-01
  rms(prec ) = 0.40455E-01
  weight for this iteration     100.00

 eigenvalues of (default mixing * dielectric matrix)
  average eigenvalue GAMMA=   1.9736
  5.1555  5.1555  2.7197  1.2977  1.0310  1.0310  0.8517  0.2363  0.2835

 Free energy of the ion-electron system (eV)
  ---------------------------------------------------
  alpha Z        PSCENC =      1104.49108591
  Ewald energy   TEWEN  =    -20764.81055269
  -Hartree energ DENC   =     -9167.70218552
  -exchange      EXHF   =         0.00000000
  -V(xc)+E(xc)   XCENC  =       456.14611213
  PAW double counting   =     29185.24116287   -30215.15380511
  entropy T*S    EENTRO =        -0.00280908
  eigenvalues    EBANDS =     -2535.49958014
  atomic energy  EATOM  =     31828.18944640
  Solvation  Ediel_sol  =         0.00000000
  ---------------------------------------------------
  free energy    TOTEN  =      -109.10112523 eV

  energy without entropy =     -109.09831615  energy(sigma->0) =     -109.10018887


--------------------------------------------------------------------------------------------------------




--------------------------------------- Iteration      1(  16)  ---------------------------------------


    POTLOK:  cpu time    0.0760: real time    0.0761
    SETDIJ:  cpu time    0.2560: real time    0.2569
     EDDAV:  cpu time   12.3328: real time   12.3746
       DOS:  cpu time    0.0080: real time    0.0076
    CHARGE:  cpu time    0.5160: real time    0.5201
    MIXING:  cpu time    0.0040: real time    0.0032
    --------------------------------------------
      LOOP:  cpu time   13.1928: real time   13.2386

 eigenvalue-minimisations  : 22304
 total energy-change (2. order) :-0.1995234E-04  (-0.1977532E-03)
 number of electron     188.0000010 magnetization      22.9271111
 augmentation part      103.3630487 magnetization      18.2020530

 Broyden mixing:
  rms(total) = 0.28625E-01    rms(broyden)= 0.28617E-01
  rms(prec ) = 0.36755E-01
  weight for this iteration     100.00

 eigenvalues of (default mixing * dielectric matrix)
  average eigenvalue GAMMA=   2.0946
  5.7403  5.7403  3.6735  0.2363  0.2835  1.4291  1.0748  0.8687  0.9500  0.9500

 Free energy of the ion-electron system (eV)
  ---------------------------------------------------
  alpha Z        PSCENC =      1104.49108591
  Ewald energy   TEWEN  =    -20764.81055269
  -Hartree energ DENC   =     -9167.74671542
  -exchange      EXHF   =         0.00000000
  -V(xc)+E(xc)   XCENC  =       456.12759693
  PAW double counting   =     29167.33492937   -30196.76675525
  entropy T*S    EENTRO =        -0.00284140
  eigenvalues    EBANDS =     -2535.91733905
  atomic energy  EATOM  =     31828.18944640
  Solvation  Ediel_sol  =         0.00000000
  ---------------------------------------------------
  free energy    TOTEN  =      -109.10114518 eV

  energy without entropy =     -109.09830378  energy(sigma->0) =     -109.10019805


--------------------------------------------------------------------------------------------------------




--------------------------------------- Iteration      1(  17)  ---------------------------------------


    POTLOK:  cpu time    0.0760: real time    0.0763
    SETDIJ:  cpu time    0.2520: real time    0.2522
     EDDAV:  cpu time   12.3128: real time   12.3562
       DOS:  cpu time    0.0080: real time    0.0082
    CHARGE:  cpu time    0.5320: real time    0.5324
    MIXING:  cpu time    0.0040: real time    0.0022
    --------------------------------------------
      LOOP:  cpu time   13.1848: real time   13.2275

 eigenvalue-minimisations  : 22272
 total energy-change (2. order) :-0.7815429E-04  (-0.3532136E-04)
 number of electron     188.0000010 magnetization      22.9625096
 augmentation part      103.3585127 magnetization      18.2385320

 Broyden mixing:
  rms(total) = 0.14506E-01    rms(broyden)= 0.14505E-01
  rms(prec ) = 0.15663E-01
  weight for this iteration     100.00

 eigenvalues of (default mixing * dielectric matrix)
  average eigenvalue GAMMA=   2.1739
  5.9970  5.9970  3.7037  2.3818  0.2363  0.2835  1.3540  0.8605  1.0409  1.0409
  1.0175

 Free energy of the ion-electron system (eV)
  ---------------------------------------------------
  alpha Z        PSCENC =      1104.49108591
  Ewald energy   TEWEN  =    -20764.81055269
  -Hartree energ DENC   =     -9167.77522676
[...]
 -0.000   0.000  -0.005   0.000  -0.000   0.000   0.000   0.000   0.004   0.000   0.000   0.000  -2.559   0.000  -0.000   0.000
 -0.000   0.000  -0.000   0.000  -0.005   0.000   0.000   0.000   0.000   0.000   0.004   0.000  -0.000   0.000  -2.604   0.000
  0.000   0.000   0.000   0.000   0.000   0.000  -0.000   0.000  -0.000   0.000  -0.000   0.000   0.000   0.000  -0.000   0.000
 -0.005   0.000  -0.000   0.000  -0.000   0.000   0.004   0.000   0.000   0.000   0.000   0.000  -0.000   0.000  -0.000   0.000
  0.000   0.000   0.000   0.000  -0.000   0.000  -0.000   0.000  -0.000   0.000   0.000   0.000   0.000   0.000   0.000   0.000
  0.000   0.000   0.000   0.000   0.000   0.000   0.000   0.000   0.000   0.000   0.000   0.000   0.000   0.000   0.000   0.000
  0.000   0.000   0.000   0.000   0.000   0.000   0.000   0.000   0.000   0.000   0.000   0.000   0.000   0.000   0.000   0.000
 pseudopotential strength for first ion, spin component:           2
-43.281   0.000  -0.000   0.000  -0.000   0.000   6.874   0.000   0.000   0.000   0.000   0.000  -0.000   0.000  -0.000   0.000
 -0.000   0.000 -43.270   0.000  -0.000   0.000   0.000   0.000   6.869   0.000   0.000   0.000   0.015   0.000  -0.000   0.000
 -0.000   0.000  -0.000   0.000 -43.281   0.000   0.000   0.000   0.000   0.000   6.874   0.000  -0.000   0.000   0.015   0.000
  6.874   0.000   0.000   0.000   0.000   0.000   5.852   0.000   0.000   0.000   0.000   0.000   0.000   0.000   0.000   0.000
  0.000   0.000   6.869   0.000   0.000   0.000   0.000   0.000   5.852   0.000   0.000   0.000  -0.006   0.000   0.000   0.000
  0.000   0.000   0.000   0.000   6.874   0.000   0.000   0.000   0.000   0.000   5.852   0.000   0.000   0.000  -0.006   0.000
 -0.000   0.000   0.015   0.000  -0.000   0.000   0.000   0.000  -0.006   0.000   0.000   0.000  -0.804   0.000   0.000   0.000
 -0.000   0.000  -0.000   0.000   0.015   0.000   0.000   0.000   0.000   0.000  -0.006   0.000   0.000   0.000  -0.758   0.000
  0.000   0.000  -0.000   0.000   0.000   0.000  -0.000   0.000   0.000   0.000  -0.000   0.000   0.000   0.000  -0.000   0.000
  0.015   0.000  -0.000   0.000  -0.000   0.000  -0.006   0.000   0.000   0.000   0.000   0.000   0.000   0.000  -0.000   0.000
  0.000   0.000   0.000   0.000  -0.000   0.000  -0.000   0.000  -0.000   0.000   0.000   0.000   0.000   0.000   0.000   0.000
 -0.000   0.000   0.014   0.000  -0.000   0.000   0.000   0.000  -0.006   0.000   0.000   0.000  -1.341   0.000   0.000   0.000
 -0.000   0.000  -0.000   0.000   0.014   0.000   0.000   0.000   0.000   0.000  -0.006   0.000   0.000   0.000  -1.295   0.000
  0.000   0.000  -0.000   0.000   0.000   0.000  -0.000   0.000   0.000   0.000  -0.000   0.000   0.000   0.000  -0.000   0.000
  0.014   0.000  -0.000   0.000  -0.000   0.000  -0.006   0.000   0.000   0.000   0.000   0.000   0.000   0.000   0.000   0.000
  0.000   0.000   0.000   0.000  -0.000   0.000  -0.000   0.000  -0.000   0.000   0.000   0.000   0.000   0.000   0.000   0.000
  0.000   0.000   0.000   0.000   0.000   0.000   0.000   0.000   0.000   0.000   0.000   0.000   0.000   0.000   0.000   0.000
  0.000   0.000   0.000   0.000   0.000   0.000   0.000   0.000   0.000   0.000   0.000   0.000   0.000   0.000   0.000   0.000
 total augmentation occupancy for first ion, spin component:           1
  1.994   0.000   0.000  -0.019   0.000   0.000  -0.000  -0.000   0.000   0.008   0.000   0.000   0.000   0.000  -0.008   0.000
  0.000   1.994   0.000   0.000  -0.019   0.000   0.008   0.000   0.000  -0.000   0.000  -0.008   0.000   0.000   0.000   0.000
  0.000   0.000   1.994   0.000   0.000  -0.019   0.000   0.008   0.000  -0.000   0.000   0.000  -0.008   0.000   0.000   0.000
 -0.019   0.000   0.000   0.163   0.000   0.000   0.000  -0.000   0.000   0.052  -0.000  -0.000  -0.000   0.000  -0.030   0.000
  0.000  -0.019   0.000   0.000   0.174   0.000   0.056  -0.000  -0.000  -0.000  -0.000  -0.034  -0.000  -0.000   0.000   0.000
  0.000   0.000  -0.019   0.000   0.000   0.163   0.000   0.052   0.000   0.000   0.000   0.000  -0.030   0.000  -0.000   0.000
 -0.000   0.008   0.000  -0.000   0.056  -0.000   1.862  -0.000  -0.000  -0.000  -0.000  -0.981  -0.000   0.000   0.000   0.000
 -0.000   0.000   0.008  -0.000   0.000   0.052  -0.000   1.936  -0.000  -0.000   0.000   0.000  -1.046   0.000   0.000   0.000
  0.000   0.000   0.000   0.000   0.000   0.000   0.000   0.000   2.280   0.000  -0.000   0.000  -0.000  -1.263  -0.000   0.000
  0.008  -0.000  -0.000   0.052   0.000  -0.000   0.000  -0.000  -0.000   1.936   0.000   0.000   0.000  -0.000  -1.046  -0.000
  0.000   0.000   0.000  -0.000  -0.000   0.000   0.000  -0.000  -0.000   0.000   2.344  -0.000   0.000  -0.000   0.000  -1.312
  0.000  -0.008   0.000  -0.000  -0.034   0.000  -0.981   0.000   0.000   0.000  -0.000   1.553   0.000   0.000   0.000  -0.000
  0.000   0.000  -0.008  -0.000  -0.000  -0.030  -0.000  -1.046  -0.000   0.000   0.000   0.000   1.556  -0.000   0.000   0.000
  0.000  -0.000   0.000   0.000  -0.000   0.000   0.000   0.000  -1.263   0.000   0.000   0.000  -0.000   1.536  -0.000   0.000
 -0.008   0.000   0.000  -0.030   0.000  -0.000  -0.000   0.000   0.000  -1.046   0.000   0.000   0.000  -0.000   1.556   0.000
  0.000   0.000   0.000   0.000   0.000  -0.000  -0.000  -0.000   0.000   0.000  -1.312  -0.000   0.000   0.000  -0.000   1.523
  0.000   0.000   0.000   0.000   0.000   0.000   0.000   0.000  -0.014   0.000   0.000   0.000   0.000   0.032   0.000   0.000
  0.000   0.000   0.000   0.000   0.000   0.000   0.000   0.000  -0.002  -0.000   0.000   0.000   0.000   0.000   0.000   0.000
 total augmentation occupancy for first ion, spin component:           2
 -0.002   0.000   0.000  -0.007  -0.000   0.000   0.000  -0.000   0.000   0.007  -0.000   0.000  -0.000   0.000  -0.008  -0.000
  0.000  -0.002   0.000  -0.000  -0.007  -0.000   0.007   0.000   0.000   0.000   0.000  -0.008   0.000   0.000   0.000  -0.000
  0.000   0.000  -0.002   0.000  -0.000  -0.007   0.000   0.007   0.000   0.000  -0.000   0.000  -0.008   0.000  -0.000   0.000
 -0.007  -0.000   0.000  -0.002   0.000   0.000  -0.000   0.000   0.000  -0.044  -0.000  -0.000   0.000   0.000   0.007   0.000
 -0.000  -0.007  -0.000   0.000  -0.008   0.000  -0.036  -0.000   0.000  -0.000   0.000   0.003  -0.000   0.000  -0.000   0.000
  0.000  -0.000  -0.007   0.000  -0.000  -0.002  -0.000  -0.044   0.000   0.000   0.000   0.000   0.007   0.000   0.000  -0.000
  0.000   0.007   0.000  -0.000  -0.036  -0.000   1.000   0.000   0.000  -0.000  -0.000  -0.245  -0.000   0.000  -0.000  -0.000
 -0.000   0.000   0.007   0.000   0.000  -0.044  -0.000   1.146   0.000   0.000   0.000  -0.000  -0.278   0.000  -0.000  -0.000
  0.000   0.000   0.000  -0.000   0.000   0.000   0.000   0.000   1.807   0.000  -0.000   0.000   0.000  -0.575   0.000   0.000
  0.007   0.000   0.000  -0.044   0.000  -0.000  -0.000   0.000   0.000   1.146   0.000  -0.000  -0.000   0.000  -0.278   0.000
  0.000   0.000  -0.000   0.000   0.000   0.000   0.000   0.000  -0.000   0.000   1.869   0.000   0.000   0.000   0.000  -0.572
  0.000  -0.008   0.000   0.000   0.003  -0.000  -0.245  -0.000   0.000  -0.000   0.000  -0.196  -0.000   0.000   0.000   0.000
 -0.000   0.000  -0.008   0.000   0.000   0.007  -0.000  -0.278   0.000   0.000   0.000   0.000  -0.194  -0.000   0.000  -0.000
  0.000   0.000   0.000   0.000   0.000   0.000   0.000   0.000  -0.575   0.000  -0.000   0.000  -0.000  -0.064   0.000  -0.000
 -0.008   0.000  -0.000   0.007   0.000  -0.000  -0.000  -0.000   0.000  -0.278   0.000   0.000   0.000  -0.000  -0.194  -0.000
  0.000  -0.000  -0.000   0.000   0.000  -0.000   0.000  -0.000   0.000   0.000  -0.572  -0.000   0.000  -0.000  -0.000  -0.054
  0.000   0.000   0.000   0.000   0.000   0.000   0.000  -0.000  -0.011   0.000   0.000   0.000   0.000  -0.018   0.000   0.000
  0.000   0.000  -0.000   0.000   0.000   0.000   0.000   0.000  -0.002   0.000   0.000   0.000  -0.000   0.001   0.000   0.000


------------------------ aborting loop because EDIFF is reached ----------------------------------------


 


 total charge     
 
# of ion       s       p       d       tot
------------------------------------------
    1        0.309   6.312   6.219  12.840
    2        0.309   6.312   6.219  12.840
    3        0.309   6.312   6.219  12.840
    4        0.309   6.312   6.219  12.840
    5        0.334   6.309   6.013  12.656
    6        0.334   6.309   6.013  12.656
    7        0.334   6.309   6.013  12.656
    8        0.334   6.309   6.013  12.656
    9        0.398   6.411   7.421  14.229
   10        0.398   6.411   7.421  14.229
   11        0.398   6.411   7.421  14.229
   12        0.398   6.411   7.421  14.229
   13        1.309   2.058   0.365   3.731
   14        1.309   2.058   0.365   3.731
   15        1.309   2.058   0.365   3.731
   16        1.309   2.058   0.365   3.731
--------------------------------------------------
tot          9.397  84.357  80.073 173.827
 


 magnetization (x)
 
# of ion       s       p       d       tot
------------------------------------------
    1        0.005  -0.009   1.991   1.987
    2        0.005  -0.009   1.991   1.987
    3        0.005  -0.009   1.991   1.987
    4        0.005  -0.009   1.991   1.987
    5        0.003  -0.005   2.782   2.781
    6        0.003  -0.005   2.782   2.781
    7        0.003  -0.005   2.782   2.781
    8        0.003  -0.005   2.782   2.781
    9       -0.004  -0.024   1.178   1.150
   10       -0.004  -0.024   1.178   1.150
   11       -0.004  -0.024   1.178   1.150
   12       -0.004  -0.024   1.178   1.150
   13       -0.001  -0.090  -0.028  -0.119
   14       -0.001  -0.090  -0.028  -0.119
   15       -0.001  -0.090  -0.028  -0.119
   16       -0.001  -0.090  -0.028  -0.119
--------------------------------------------------
tot          0.012  -0.511  23.694  23.195
 
    CHARGE:  cpu time    0.9801: real time    0.9822
    FORLOC:  cpu time    0.0080: real time    0.0086
    FORNL :  cpu time    2.8082: real time    2.8168
    STRESS:  cpu time    8.6485: real time    8.6800
    FORCOR:  cpu time    0.0720: real time    0.0716
    FORHAR:  cpu time    0.0120: real time    0.0112
    MIXING:  cpu time    0.0000: real time    0.0019
    OFIELD:  cpu time    0.0000: real time    0.0000

  FORCE on cell =-STRESS in cart. coord.  units (eV):
  Direction    XX          YY          ZZ          XY          YZ          ZX
  --------------------------------------------------------------------------------------
  Alpha Z  1104.49109  1104.49109  1104.49109
  Ewald   -6937.01612 -6937.01612 -6890.83405     0.00000     0.00000    -0.00000
  Hartree  3043.86697  3043.86697  3079.76815    -0.00000     0.00000    -0.00000
  E(xc)   -1192.24838 -1192.24838 -1192.27478     0.00000    -0.00000    -0.00000
  Local     759.53111   759.53111   677.92096     0.00000    -0.00000     0.00000
  n-local  -202.10264  -196.98943  -197.74506    -0.24186    -0.38349    -0.30822
  augment  1669.70261  1669.70261  1668.37003    -0.00000     0.00000     0.00000
  Kinetic  1747.80575  1754.67947  1750.23409    -0.13592     0.20172    -0.55859
  Fock        0.00000     0.00000     0.00000     0.00000     0.00000     0.00000
  -------------------------------------------------------------------------------------
  Total       0.02385     0.02385    -0.06958     0.00000     0.00000    -0.00000
  in kB       0.17778     0.17778    -0.51869     0.00000     0.00000    -0.00000
  external pressure =       -0.05 kB  Pullay stress =        0.00 kB


 VOLUME and BASIS-vectors are now :
 -----------------------------------------------------------------------------
  energy-cutoff  :      500.00
  volume of cell :      214.92
      direct lattice vectors                 reciprocal lattice vectors
     6.038450242  0.000000000  0.000000000     0.165605405  0.000000000  0.000000000
     0.000000000  6.038450242  0.000000000     0.000000000  0.165605405  0.000000000
     0.000000000  0.000000000  5.894121422     0.000000000  0.000000000  0.169660570

  length of vectors
     6.038450242  6.038450242  5.894121422     0.165605405  0.165605405  0.169660570


 FORCES acting on ions
    electron-ion (+dipol)            ewald-force                    non-local-force                 convergence-correction
 -----------------------------------------------------------------------------------------------
   0.135E-11 0.100E-10 -.352E-10   0.114E-12 -.568E-13 0.568E-13   0.260E-17 0.000E+00 0.000E+00   -.669E-13 -.361E-12 0.781E-13
   -.599E-12 -.108E-12 -.430E-10   0.135E-12 -.711E-13 0.568E-13   0.260E-17 0.000E+00 0.000E+00   -.173E-12 -.369E-12 0.457E-13
   0.209E-11 0.190E-10 0.445E-10   0.107E-12 -.284E-13 0.497E-13   -.520E-17 0.000E+00 0.000E+00   -.251E-13 -.185E-12 -.396E-13
   0.257E-12 -.490E-13 0.445E-10   0.128E-12 -.426E-13 0.497E-13   -.520E-17 0.000E+00 0.000E+00   -.172E-12 -.190E-12 -.354E-13
   0.700E-12 -.117E-11 0.192E-11   -.143E-12 -.114E-12 -.283E-13   0.414E-24 0.000E+00 0.000E+00   -.487E-13 0.416E-12 0.635E-13
   0.107E-11 0.214E-11 -.127E-11   -.114E-12 0.874E-13 -.584E-13   0.827E-24 -.207E-24 -.103E-23   -.731E-13 0.282E-12 -.761E-13
   0.296E-11 0.622E-12 0.509E-12   -.112E-12 0.854E-13 -.584E-13   -.414E-24 0.000E+00 0.827E-24   0.565E-13 0.390E-12 -.501E-13
   0.240E-11 -.146E-10 -.145E-10   -.141E-12 -.112E-12 -.283E-13   -.827E-24 0.000E+00 -.827E-24   0.608E-13 0.325E-12 0.772E-13
   0.153E-11 -.788E-13 0.165E-10   0.639E-13 0.497E-13 -.426E-13   0.867E-18 -.520E-17 0.000E+00   -.513E-13 -.242E-12 0.278E-13
   -.553E-12 0.205E-11 0.165E-10   0.568E-13 0.924E-13 -.426E-13   -.260E-17 -.520E-17 0.000E+00   -.151E-12 -.260E-12 0.453E-13
   0.239E-11 -.347E-13 0.256E-11   0.497E-13 0.355E-13 0.355E-13   -.173E-17 0.260E-17 0.000E+00   -.768E-14 -.367E-13 -.493E-13
   0.175E-12 0.209E-11 -.148E-10   0.142E-13 0.782E-13 0.355E-13   0.173E-17 0.260E-17 0.000E+00   -.191E-12 -.622E-13 -.532E-13
   -.319E-13 -.264E-12 -.242E-12   -.572E-13 0.136E-13 0.137E-13   -.414E-24 -.103E-23 -.258E-24   -.177E-13 -.890E-14 -.169E-13
   0.206E-13 -.207E-11 -.143E-11   -.714E-13 -.290E-13 0.740E-14   0.103E-23 0.000E+00 0.321E-23   0.230E-13 -.893E-14 0.152E-13
   0.866E-13 0.146E-12 0.166E-12   -.707E-13 -.278E-13 0.739E-14   -.620E-24 0.310E-24 -.248E-23   -.261E-13 -.291E-13 0.162E-13
   -.530E-13 -.152E-11 -.215E-11   -.566E-13 0.149E-13 0.144E-13   0.775E-24 0.827E-24 0.827E-24   0.333E-13 -.266E-13 -.172E-13
 -----------------------------------------------------------------------------------------------
   0.138E-10 0.162E-10 0.146E-10   -.983E-13 -.239E-13 0.684E-13   -.694E-17 -.520E-17 0.258E-24   -.830E-12 -.367E-12 0.312E-13
 
 
 POSITION                                       TOTAL-FORCE (eV/Angst)
 -----------------------------------------------------------------------------------
      3.01923      3.01923      2.94706        -0.000000     -0.000000     -0.000000
      0.00000      0.00000      2.94706         0.000000      0.000000     -0.000000
      3.01923      3.01923      0.00000         0.000000      0.000000      0.000000
      0.00000      0.00000      0.00000        -0.000000     -0.000000      0.000000
      1.50961      1.50961      4.42059        -0.000000      0.000000      0.000000
      1.50961      4.52884      1.47353        -0.000000      0.000000     -0.000000
      4.52884      1.50961      1.47353         0.000000     -0.000000     -0.000000
      4.52884      4.52884      4.42059         0.000000      0.000000     -0.000000
      3.01923      0.00000      0.00000        -0.000000      0.000000     -0.000000
      0.00000      3.01923      0.00000         0.000000      0.000000     -0.000000
      3.01923      0.00000      2.94706         0.000000     -0.000000     -0.000000
      0.00000      3.01923      2.94706        -0.000000      0.000000     -0.000000
      1.50961      1.50961      1.47353         0.000000      0.000000      0.000000
      4.52884      1.50961      4.42059        -0.000000      0.000000     -0.000000
      1.50961      4.52884      4.42059         0.000000      0.000000     -0.000000
      4.52884      4.52884      1.47353         0.000000      0.000000      0.000000
 -----------------------------------------------------------------------------------
    total drift:                                0.000000      0.000000      0.000000


--------------------------------------------------------------------------------------------------------



  FREE ENERGIE OF THE ION-ELECTRON SYSTEM (eV)
  ---------------------------------------------------
  free  energy   TOTEN  =      -109.10135600 eV

  energy  without entropy=     -109.09846372  energy(sigma->0) =     -109.10039190
 


--------------------------------------------------------------------------------------------------------


    POTLOK:  cpu time    0.3240: real time    0.3252


--------------------------------------------------------------------------------------------------------


     LOOP+:  cpu time  290.9502: real time  292.0380
    4ORBIT:  cpu time    0.0000: real time    0.0000
 


 total charge     
 
# of ion       s       p       d       tot
------------------------------------------
    1        0.309   6.312   6.219  12.840
    2        0.309   6.312   6.219  12.840
    3        0.309   6.312   6.219  12.840
    4        0.309   6.312   6.219  12.840
    5        0.334   6.309   6.013  12.656
    6        0.334   6.309   6.013  12.656
    7        0.334   6.309   6.013  12.656
    8        0.334   6.309   6.013  12.656
    9        0.398   6.411   7.421  14.229
   10        0.398   6.411   7.421  14.229
   11        0.398   6.411   7.421  14.229
   12        0.398   6.411   7.421  14.229
   13        1.309   2.058   0.365   3.731
   14        1.309   2.058   0.365   3.731
   15        1.309   2.058   0.365   3.731
   16        1.309   2.058   0.365   3.731
--------------------------------------------------
tot          9.397  84.357  80.073 173.827
 


 magnetization (x)
 
# of ion       s       p       d       tot
------------------------------------------
    1        0.005  -0.009   1.991   1.987
    2        0.005  -0.009   1.991   1.987
    3        0.005  -0.009   1.991   1.987
    4        0.005  -0.009   1.991   1.987
    5        0.003  -0.005   2.782   2.781
    6        0.003  -0.005   2.782   2.781
    7        0.003  -0.005   2.782   2.781
    8        0.003  -0.005   2.782   2.781
    9       -0.004  -0.024   1.178   1.150
   10       -0.004  -0.024   1.178   1.150
   11       -0.004  -0.024   1.178   1.150
   12       -0.004  -0.024   1.178   1.150
   13       -0.001  -0.090  -0.028  -0.119
   14       -0.001  -0.090  -0.028  -0.119
   15       -0.001  -0.090  -0.028  -0.119
   16       -0.001  -0.090  -0.028  -0.119
--------------------------------------------------
tot          0.012  -0.511  23.694  23.195
 

 total amount of memory used by VASP MPI-rank0    55049. kBytes
=======================================================================

   base      :      30000. kBytes
   nonlr-proj:       4670. kBytes
   fftplans  :       4343. kBytes
   grid      :       3686. kBytes
   one-center:         62. kBytes
   wavefun   :      12288. kBytes
 
  
  
 General timing and accounting informations for this job:
 ========================================================
  
                  Total CPU time used (sec):      303.527
                            User time (sec):      301.539
                          System time (sec):        1.988
                         Elapsed time (sec):      305.880
  
                   Maximum memory used (kb):     1094628.
                   Average memory used (kb):           0.
  
                          Minor page faults:       488441
                          Major page faults:            0
                 Voluntary context switches:         4976
