 vasp.6.1.1 19Jun20 (build Jan 21 2021 08:43:03) complex                        
  
 executed on             LinuxIFC date 2023.04.01  04:11:53
 running on   80 total cores
 distrk:  each k-point on   80 cores,    1 groups
 distr:  one band on NCORE=  10 cores,    8 groups


--------------------------------------------------------------------------------------------------------


 INCAR:
 POTCAR:    PAW_PBE Fe_pv 02Aug2007               
 POTCAR:    PAW_PBE Co_pv 23Apr2009               
 POTCAR:     PAW_PBE Sn 08Apr2002                 
 POTCAR:    PAW_PBE Fe_pv 02Aug2007               
   VRHFIN =Fe:  3pd7s1                                                                              
   LEXCH  = PE                                                                                      
   EATOM  =  2457.4239 eV,  180.6156 Ry                                                             
                                                                                                    
   TITEL  = PAW_PBE Fe_pv 02Aug2007                                                                 
   LULTRA =        F    use ultrasoft PP ?                                                          
   IUNSCR =        1    unscreen: 0-lin 1-nonlin 2-no                                               
   RPACOR =    1.750    partial core radius                                                         
   POMASS =   55.847; ZVAL   =   14.000    mass and valenz                                          
   RCORE  =    2.200    outmost cutoff radius                                                       
   RWIGS  =    2.200; RWIGS  =    1.164    wigner-seitz radius (au A)                               
   ENMAX  =  293.238; ENMIN  =  219.928 eV                                                          
   ICORE  =        3    local potential                                                             
   LCOR   =        T    correct aug charges                                                         
   LPAW   =        T    paw PP                                                                      
   EAUG   =  578.342                                                                                
   DEXC   =    0.000                                                                                
   RMAX   =    2.249    core radius for proj-oper                                                   
   RAUG   =    1.300    factor for augmentation sphere                                              
   RDEP   =    2.296    radius for radial grids                                                     
   RDEPT  =    1.766    core radius for aug-charge                                                  
                                                                                                    
   Atomic configuration                                                                             
    8 entries                                                                                       
     n  l   j            E        occ.                                                              
     1  0  0.50     -6993.8440   2.0000                                                             
     2  0  0.50      -814.6047   2.0000                                                             
     2  1  1.50      -693.3689   6.0000                                                             
     3  0  0.50       -89.4732   2.0000                                                             
     3  1  1.50       -55.6373   6.0000                                                             
     3  2  2.50        -3.8151   7.0000                                                             
     4  0  0.50        -4.2551   1.0000                                                             
     4  3  2.50        -1.3606   0.0000                                                             
   Description                                                                                      
     l       E           TYP  RCUT    TYP  RCUT                                                     
     1    -55.6372668     23  2.000                                                                 
     1     -5.4423304     23  2.000                                                                 
     2     -3.8151096     23  2.200                                                                 
     2     -5.1756922     23  2.200                                                                 
     0     -4.2550951     23  2.200                                                                 
     0     27.2116520     23  2.200                                                                 
     3     -1.3605826     23  2.200                                                                 
  local pseudopotential read in
  partial core-charges read in
  partial kinetic energy density read in
  atomic valenz-charges read in
  non local Contribution for L=           1  read in
    real space projection operators read in
  non local Contribution for L=           1  read in
    real space projection operators read in
  non local Contribution for L=           2  read in
    real space projection operators read in
  non local Contribution for L=           2  read in
    real space projection operators read in
  non local Contribution for L=           0  read in
    real space projection operators read in
  non local Contribution for L=           0  read in
    real space projection operators read in
    PAW grid and wavefunctions read in
 
   number of l-projection  operators is LMAX  =           6
   number of lm-projection operators is LMMAX =          18
 
 POTCAR:    PAW_PBE Co_pv 23Apr2009               
   VRHFIN =Co: 3pd7s1                                                                               
   LEXCH  = PE                                                                                      
   EATOM  =  2948.1334 eV,  216.6817 Ry                                                             
                                                                                                    
   TITEL  = PAW_PBE Co_pv 23Apr2009                                                                 
   LULTRA =        F    use ultrasoft PP ?                                                          
   IUNSCR =        1    unscreen: 0-lin 1-nonlin 2-no                                               
   RPACOR =    2.000    partial core radius                                                         
   POMASS =   58.933; ZVAL   =   15.000    mass and valenz                                          
   RCORE  =    2.300    outmost cutoff radius                                                       
   RWIGS  =    2.460; RWIGS  =    1.302    wigner-seitz radius (au A)                               
   ENMAX  =  271.042; ENMIN  =  203.281 eV                                                          
   ICORE  =        3    local potential                                                             
   LCOR   =        T    correct aug charges                                                         
   LPAW   =        T    paw PP                                                                      
   EAUG   =  543.066                                                                                
   DEXC   =    0.000                                                                                
   RMAX   =    2.360    core radius for proj-oper                                                   
   RAUG   =    1.300    factor for augmentation sphere                                              
   RDEP   =    2.393    radius for radial grids                                                     
   RDEPT  =    1.841    core radius for aug-charge                                                  
                                                                                                    
   Atomic configuration                                                                             
    8 entries                                                                                       
     n  l   j            E        occ.                                                              
     1  0  0.50     -7587.6674   2.0000                                                             
     2  0  0.50      -893.6084   2.0000                                                             
     2  1  1.50      -764.5805   6.0000                                                             
     3  0  0.50       -97.5973   2.0000                                                             
     3  1  1.50       -60.9648   6.0000                                                             
     3  2  2.50        -4.2382   8.0000                                                             
     4  0  0.50        -4.3746   1.0000                                                             
     4  3  2.50        -1.3606   0.0000                                                             
   Description                                                                                      
     l       E           TYP  RCUT    TYP  RCUT                                                     
     1    -60.9647990     23  2.000                                                                 
     1     -5.4423304     23  2.000                                                                 
     2     -4.2382362     23  2.300                                                                 
     2     -5.5988188     23  2.300                                                                 
     0     -4.3745797     23  2.300                                                                 
     0      5.7660125     23  2.300                                                                 
     3     -1.3605826     23  2.300                                                                 
  local pseudopotential read in
  partial core-charges read in
  partial kinetic energy density read in
  atomic valenz-charges read in
  non local Contribution for L=           1  read in
    real space projection operators read in
  non local Contribution for L=           1  read in
    real space projection operators read in
  non local Contribution for L=           2  read in
    real space projection operators read in
  non local Contribution for L=           2  read in
    real space projection operators read in
  non local Contribution for L=           0  read in
    real space projection operators read in
  non local Contribution for L=           0  read in
    real space projection operators read in
    PAW grid and wavefunctions read in
 
   number of l-projection  operators is LMAX  =           6
   number of lm-projection operators is LMMAX =          18
 
 POTCAR:     PAW_PBE Sn 08Apr2002                 
   VRHFIN =Sn: s2p2                                                                                 
   LEXCH  = PE                                                                                      
   EATOM  =    94.0860 eV,    6.9151 Ry                                                             
                                                                                                    
   TITEL  = PAW_PBE Sn 08Apr2002                                                                    
   LULTRA =        F    use ultrasoft PP ?                                                          
   IUNSCR =        1    unscreen: 0-lin 1-nonlin 2-no                                               
   RPACOR =    2.000    partial core radius                                                         
   POMASS =  118.710; ZVAL   =    4.000    mass and valenz                                          
   RCORE  =    3.000    outmost cutoff radius                                                       
   RWIGS  =    2.960; RWIGS  =    1.566    wigner-seitz radius (au A)                               
   ENMAX  =  103.236; ENMIN  =   77.427 eV                                                          
   ICORE  =        3    local potential                                                             
   LCOR   =        T    correct aug charges                                                         
   LPAW   =        T    paw PP                                                                      
   EAUG   =  263.585                                                                                
   DEXC   =    0.000                                                                                
   RMAX   =    3.078    core radius for proj-oper                                                   
   RAUG   =    1.300    factor for augmentation sphere                                              
   RDEP   =    3.022    radius for radial grids                                                     
   RDEPT  =    2.655    core radius for aug-charge                                                  
                                                                                                    
   Atomic configuration                                                                             
   13 entries                                                                                       
     n  l   j            E        occ.                                                              
     1  0  0.50    -29007.2859   2.0000                                                             
     2  0  0.50     -4378.8056   2.0000                                                             
     2  1  1.50     -3930.4293   6.0000                                                             
     3  0  0.50      -845.0264   2.0000                                                             
     3  1  1.50      -698.5725   6.0000                                                             
     3  2  2.50      -473.2839  10.0000                                                             
     4  0  0.50      -133.9036   2.0000                                                             
     4  1  1.50       -89.6752   6.0000                                                             
     4  2  2.50       -25.8375  10.0000                                                             
     5  0  0.50       -10.5484   2.0000                                                             
     5  1  0.50        -3.6940   2.0000                                                             
     5  2  1.50        -1.3606   0.0000                                                             
     4  3  2.50        -4.0817   0.0000                                                             
   Description                                                                                      
     l       E           TYP  RCUT    TYP  RCUT                                                     
     0    -10.5483727     23  3.000                                                                 
     0     27.2116520     23  3.000                                                                 
     1     -3.6939829     23  3.000                                                                 
     1      1.9821976     23  3.000                                                                 
     2     -1.3605826     23  3.000                                                                 
     3     -2.7211652     23  3.000                                                                 
  local pseudopotential read in
  partial core-charges read in
  partial kinetic energy density read in
  atomic valenz-charges read in
  non local Contribution for L=           0  read in
    real space projection operators read in
  non local Contribution for L=           0  read in
    real space projection operators read in
  non local Contribution for L=           1  read in
    real space projection operators read in
  non local Contribution for L=           1  read in
    real space projection operators read in
  non local Contribution for L=           2  read in
    real space projection operators read in
    PAW grid and wavefunctions read in
 
   number of l-projection  operators is LMAX  =           5
   number of lm-projection operators is LMMAX =          13
 
 Optimization of the real space projectors (new method)

 maximal supplied QI-value         = 17.01
 optimisation between [QCUT,QGAM] = [ 11.40, 22.79] = [ 36.36,145.44] Ry 
 Optimized for a Real-space Cutoff    1.47 Angstroem

   l    n(q)    QCUT    max X(q) W(low)/X(q) W(high)/X(q)  e(spline) 
   1     10    11.395     4.267    0.90E-04    0.11E-03    0.18E-06
   1     10    11.395     5.750    0.14E-03    0.15E-03    0.25E-06
   2      9    11.395    53.656    0.13E-03    0.36E-04    0.15E-06
   2      9    11.395    49.521    0.14E-03    0.36E-04    0.15E-06
   0     10    11.395    31.246    0.58E-04    0.17E-05    0.98E-07
   0     10    11.395    12.201    0.41E-04    0.11E-05    0.82E-07
 Optimization of the real space projectors (new method)

 maximal supplied QI-value         = 16.25
 optimisation between [QCUT,QGAM] = [ 11.38, 22.75] = [ 36.24,144.96] Ry 
 Optimized for a Real-space Cutoff    1.47 Angstroem

   l    n(q)    QCUT    max X(q) W(low)/X(q) W(high)/X(q)  e(spline) 
   1     10    11.376     4.946    0.88E-04    0.16E-03    0.15E-06
   1     10    11.376     5.991    0.13E-03    0.24E-03    0.21E-06
   2      9    11.376    46.947    0.87E-04    0.91E-04    0.20E-06
   2      9    11.376    42.928    0.91E-04    0.94E-04    0.20E-06
   0     10    11.376    68.324    0.58E-04    0.21E-04    0.82E-07
   0     10    11.376    36.926    0.52E-04    0.19E-04    0.78E-07
 Optimization of the real space projectors (new method)

 maximal supplied QI-value         = 12.47
 optimisation between [QCUT,QGAM] = [ 11.35, 22.82] = [ 36.07,145.88] Ry 
 Optimized for a Real-space Cutoff    1.66 Angstroem

   l    n(q)    QCUT    max X(q) W(low)/X(q) W(high)/X(q)  e(spline) 
   0     11    11.350    14.688    0.21E-04    0.12E-04    0.45E-07
   0     11    11.350     7.308    0.36E-04    0.28E-04    0.12E-06
   1     11    11.350    45.102    0.58E-04    0.28E-04    0.33E-06
   1     11    11.350    30.691    0.55E-04    0.27E-04    0.31E-06
   2     10    11.350     7.156    0.77E-05    0.22E-04    0.47E-07
  PAW_PBE Fe_pv 02Aug2007               :
 energy of atom  1       EATOM=-2457.4239
 kinetic energy error for atom=    0.0069 (will be added to EATOM!!)
  PAW_PBE Co_pv 23Apr2009               :
 energy of atom  2       EATOM=-2948.1334
 kinetic energy error for atom=    0.0060 (will be added to EATOM!!)
   PAW_PBE Sn 08Apr2002                 :
 energy of atom  3       EATOM=  -94.0860
 kinetic energy error for atom=    0.0000 (will be added to EATOM!!)
 
 
 POSCAR: Heusler tetragonGa
  positions in direct lattice
  velocities in cartesian coordinates
 exchange correlation table for  LEXCH =        8
   RHO(1)=    0.500       N(1)  =     2000
   RHO(2)=  100.500       N(2)  =     4000
 


--------------------------------------------------------------------------------------------------------


 ion  position               nearest neighbor table
   1  0.500  0.000  0.500-   5 2.59   6 2.59   7 2.59   8 2.59  13 2.59  14 2.59  15 2.59  16 2.59

   2  0.000  0.500  0.500-   5 2.59   6 2.59   7 2.59   8 2.59  13 2.59  14 2.59  15 2.59  16 2.59

   3  0.500  0.500  0.000-   5 2.59   6 2.59   7 2.59   8 2.59  13 2.59  14 2.59  15 2.59  16 2.59

   4  0.000  0.000  0.000-   5 2.59   6 2.59   7 2.59   8 2.59  13 2.59  14 2.59  15 2.59  16 2.59

   5  0.250  0.250  0.750-   1 2.59   2 2.59   3 2.59   4 2.59   9 2.59  10 2.59  11 2.59  12 2.59

   6  0.250  0.750  0.250-   1 2.59   2 2.59   3 2.59   4 2.59   9 2.59  10 2.59  11 2.59  12 2.59

   7  0.750  0.250  0.250-   1 2.59   2 2.59   3 2.59   4 2.59   9 2.59  10 2.59  11 2.59  12 2.59

   8  0.750  0.750  0.750-   1 2.59   2 2.59   3 2.59   4 2.59   9 2.59  10 2.59  11 2.59  12 2.59

   9  0.500  0.000  0.000-   5 2.59   6 2.59   7 2.59   8 2.59  13 2.59  14 2.59  15 2.59  16 2.59

  10  0.000  0.500  0.000-   5 2.59   6 2.59   7 2.59   8 2.59  13 2.59  14 2.59  15 2.59  16 2.59

  11  0.000  0.000  0.500-   5 2.59   6 2.59   7 2.59   8 2.59  13 2.59  14 2.59  15 2.59  16 2.59

  12  0.500  0.500  0.500-   5 2.59   6 2.59   7 2.59   8 2.59  13 2.59  14 2.59  15 2.59  16 2.59

  13  0.250  0.250  0.250-   1 2.59   2 2.59   3 2.59   4 2.59   9 2.59  10 2.59  11 2.59  12 2.59

  14  0.750  0.250  0.750-   1 2.59   2 2.59   3 2.59   4 2.59   9 2.59  10 2.59  11 2.59  12 2.59

  15  0.250  0.750  0.750-   1 2.59   2 2.59   3 2.59   4 2.59   9 2.59  10 2.59  11 2.59  12 2.59

  16  0.750  0.750  0.250-   1 2.59   2 2.59   3 2.59   4 2.59   9 2.59  10 2.59  11 2.59  12 2.59

 
  LATTYP: Found a simple tetragonal cell.
 ALAT       =     5.9786816071
 C/A-ratio  =     0.9998162275
  
  Lattice vectors:
  
 A1 = (   5.9786816071,   0.0000000000,   0.0000000000)
 A2 = (   0.0000000000,   5.9786816071,   0.0000000000)
 A3 = (   0.0000000000,   0.0000000000,   5.9775828899)


Analysis of symmetry for initial positions (statically):
=====================================================================
 Subroutine PRICEL returns following result:
 
  LATTYP: Found a body centered tetragonal cell.
 ALAT       =     4.2275663069
 C/A-ratio  =     1.4139536688
  
  Lattice vectors:
  
 A1 = (   2.9893408036,   0.0000000000,   2.9887914449)
 A2 = (  -2.9893408036,   0.0000000000,   2.9887914449)
 A3 = (   0.0000000000,  -2.9893408036,  -2.9887914449)
 
   4 primitive cells build up your supercell.
 

 Routine SETGRP: Setting up the symmetry group for a 
 simple tetragonal supercell.


 Subroutine GETGRP returns: Found  8 space group operations
 (whereof  8 operations were pure point group operations)
 out of a pool of 16 trial point group operations.


The static configuration has the point symmetry D_2d.


Analysis of symmetry for dynamics (positions and initial velocities):
=====================================================================
 Subroutine PRICEL returns following result:
 
  LATTYP: Found a body centered tetragonal cell.
 ALAT       =     4.2275663069
 C/A-ratio  =     1.4139536688
  
  Lattice vectors:
  
 A1 = (   2.9893408036,   0.0000000000,   2.9887914449)
 A2 = (  -2.9893408036,   0.0000000000,   2.9887914449)
 A3 = (   0.0000000000,  -2.9893408036,  -2.9887914449)
 
   4 primitive cells build up your supercell.
 

 Routine SETGRP: Setting up the symmetry group for a 
 simple tetragonal supercell.


 Subroutine GETGRP returns: Found  8 space group operations
 (whereof  8 operations were pure point group operations)
 out of a pool of 16 trial point group operations.


The dynamic configuration has the point symmetry D_2d.


Analysis of structural, dynamic, and magnetic symmetry:
=====================================================================
 Subroutine PRICEL returns following result:
 
  LATTYP: Found a body centered tetragonal cell.
 ALAT       =     4.2275663069
 C/A-ratio  =     1.4139536688
  
  Lattice vectors:
  
 A1 = (   2.9893408036,   0.0000000000,   2.9887914449)
 A2 = (  -2.9893408036,   0.0000000000,   2.9887914449)
 A3 = (   0.0000000000,  -2.9893408036,  -2.9887914449)
 
   4 primitive cells build up your supercell.
 

 Routine SETGRP: Setting up the symmetry group for a 
 simple tetragonal supercell.


 Subroutine GETGRP returns: Found  8 space group operations
 (whereof  8 operations were pure point group operations)
 out of a pool of 16 trial point group operations.


The magnetic configuration has the point symmetry D_2d.


 Subroutine INISYM returns: Found  8 space group operations
 (whereof  8 operations are pure point group operations),
 and found     4 'primitive' translations


----------------------------------------------------------------------------------------

                                     Primitive cell                                     

  volume of cell :      53.4166

  direct lattice vectors                    reciprocal lattice vectors
     2.989340804  0.000000000  2.988791445     0.167260956 -0.167260956  0.167291699
    -2.989340804  0.000000000  2.988791445    -0.167260956 -0.167260956  0.167291699
     0.000000000 -2.989340804 -2.988791445     0.000000000 -0.334521912  0.000000000

  length of vectors
     4.227177870  4.227177870  4.227177870     0.289722224  0.289722224  0.334521912

  position of ions in fractional coordinates (direct lattice)
     0.000000000  0.000000000  0.000000000
     0.750000000  0.250000000  0.500000000
     0.500000000  0.500000000  0.000000000
     0.250000000  0.750000000  0.500000000

  ion indices of the primitive-cell ions
   primitive index   ion index
                 1           1
                 2           5
                 3           9
                 4          13

----------------------------------------------------------------------------------------

 
 
 KPOINTS: Ni7CoMn5CrSn2                           

Automatic generation of k-mesh.
Space group operators:
 irot       det(A)        alpha          n_x          n_y          n_z        tau_x        tau_y        tau_z
    1     1.000000     0.000000     1.000000     0.000000     0.000000     0.000000     0.000000     0.000000
    2    -1.000000    90.000000     0.000000     0.000000    -1.000000     0.000000     0.000000     0.000000
    3     1.000000   179.999999     0.000000     0.000000     1.000000     0.000000     0.000000     0.000000
    4    -1.000000    90.000000     0.000000     0.000000     1.000000     0.000000     0.000000     0.000000
    5     1.000000   180.000000     0.000000     1.000000     0.000000     0.000000     0.000000     0.000000
    6    -1.000000   180.000000     0.707107     0.707107     0.000000     0.000000     0.000000     0.000000
    7     1.000000   180.000000     1.000000     0.000000     0.000000     0.000000     0.000000     0.000000
    8    -1.000000   180.000000     0.707107    -0.707107     0.000000     0.000000     0.000000     0.000000
 
 Subroutine IBZKPT returns following result:
 ===========================================
 
 Found     40 irreducible k-points:
 
 Following reciprocal coordinates:
            Coordinates               Weight
  0.062500  0.062500  0.062500      8.000000
  0.187500  0.062500  0.062500     16.000000
  0.312500  0.062500  0.062500     16.000000
  0.437500  0.062500  0.062500     16.000000
  0.187500  0.187500  0.062500      8.000000
  0.312500  0.187500  0.062500     16.000000
  0.437500  0.187500  0.062500     16.000000
  0.312500  0.312500  0.062500      8.000000
  0.437500  0.312500  0.062500     16.000000
  0.437500  0.437500  0.062500      8.000000
  0.062500  0.062500  0.187500      8.000000
  0.187500  0.062500  0.187500     16.000000
  0.312500  0.062500  0.187500     16.000000
  0.437500  0.062500  0.187500     16.000000
  0.187500  0.187500  0.187500      8.000000
  0.312500  0.187500  0.187500     16.000000
  0.437500  0.187500  0.187500     16.000000
  0.312500  0.312500  0.187500      8.000000
  0.437500  0.312500  0.187500     16.000000
  0.437500  0.437500  0.187500      8.000000
  0.062500  0.062500  0.312500      8.000000
  0.187500  0.062500  0.312500     16.000000
  0.312500  0.062500  0.312500     16.000000
  0.437500  0.062500  0.312500     16.000000
  0.187500  0.187500  0.312500      8.000000
  0.312500  0.187500  0.312500     16.000000
  0.437500  0.187500  0.312500     16.000000
  0.312500  0.312500  0.312500      8.000000
  0.437500  0.312500  0.312500     16.000000
  0.437500  0.437500  0.312500      8.000000
  0.062500  0.062500  0.437500      8.000000
  0.187500  0.062500  0.437500     16.000000
  0.312500  0.062500  0.437500     16.000000
  0.437500  0.062500  0.437500     16.000000
  0.187500  0.187500  0.437500      8.000000
  0.312500  0.187500  0.437500     16.000000
  0.437500  0.187500  0.437500     16.000000
  0.312500  0.312500  0.437500      8.000000
  0.437500  0.312500  0.437500     16.000000
  0.437500  0.437500  0.437500      8.000000
 
 Following cartesian coordinates:
            Coordinates               Weight
  0.063246  0.063246  0.063257      8.000000
  0.189737  0.063246  0.063257     16.000000
  0.316228  0.063246  0.063257     16.000000
  0.442719  0.063246  0.063257     16.000000
  0.189737  0.189737  0.063257      8.000000
  0.316228  0.189737  0.063257     16.000000
  0.442719  0.189737  0.063257     16.000000
  0.316228  0.316228  0.063257      8.000000
  0.442719  0.316228  0.063257     16.000000
  0.442719  0.442719  0.063257      8.000000
  0.063246  0.063246  0.189772      8.000000
  0.189737  0.063246  0.189772     16.000000
  0.316228  0.063246  0.189772     16.000000
  0.442719  0.063246  0.189772     16.000000
  0.189737  0.189737  0.189772      8.000000
  0.316228  0.189737  0.189772     16.000000
  0.442719  0.189737  0.189772     16.000000
  0.316228  0.316228  0.189772      8.000000
  0.442719  0.316228  0.189772     16.000000
  0.442719  0.442719  0.189772      8.000000
  0.063246  0.063246  0.316286      8.000000
  0.189737  0.063246  0.316286     16.000000
  0.316228  0.063246  0.316286     16.000000
  0.442719  0.063246  0.316286     16.000000
  0.189737  0.189737  0.316286      8.000000
  0.316228  0.189737  0.316286     16.000000
  0.442719  0.189737  0.316286     16.000000
  0.316228  0.316228  0.316286      8.000000
  0.442719  0.316228  0.316286     16.000000
  0.442719  0.442719  0.316286      8.000000
  0.063246  0.063246  0.442800      8.000000
  0.189737  0.063246  0.442800     16.000000
  0.316228  0.063246  0.442800     16.000000
  0.442719  0.063246  0.442800     16.000000
  0.189737  0.189737  0.442800      8.000000
  0.316228  0.189737  0.442800     16.000000
  0.442719  0.189737  0.442800     16.000000
  0.316228  0.316228  0.442800      8.000000
  0.442719  0.316228  0.442800     16.000000
  0.442719  0.442719  0.442800      8.000000
 


--------------------------------------------------------------------------------------------------------




 Dimension of arrays:
   k-points           NKPTS =     40   k-points in BZ     NKDIM =     40   number of bands    NBANDS=    128
   number of dos      NEDOS =   1500   number of ions     NIONS =     16
   non local maximal  LDIM  =      6   non local SUM 2l+1 LMDIM =     18
   total plane-waves  NPLWV = 110592
   max r-space proj   IRMAX =   9957   max aug-charges    IRDMAX= 398731
   dimension x,y,z NGX =    48 NGY =   48 NGZ =   48
   dimension x,y,z NGXF=    96 NGYF=   96 NGZF=   96
   support grid    NGXF=   192 NGYF=  192 NGZF=  192
   ions per type =               8   4   4
   NGX,Y,Z   is equivalent  to a cutoff of  13.35, 13.35, 13.35 a.u.
   NGXF,Y,Z  is equivalent  to a cutoff of  26.69, 26.69, 26.70 a.u.

 SYSTEM =  NiCoMnGa                                
 POSCAR =  Heusler tetragonGa                      

 Startparameter for this run:
   NWRITE =      2    write-flag & timer
   PREC   = accura    normal or accurate (medium, high low for compatibility)
   ISTART =      0    job   : 0-new  1-cont  2-samecut
   ICHARG =      2    charge: 1-file 2-atom 10-const
   ISPIN  =      2    spin polarized calculation?
   LNONCOLLINEAR =      F non collinear calculations
   LSORBIT =      F    spin-orbit coupling
   INIWAV =      1    electr: 0-lowe 1-rand  2-diag
   LASPH  =      F    aspherical Exc in radial PAW
   METAGGA=      F    non-selfconsistent MetaGGA calc.

 Electronic Relaxation 1
   ENCUT  =  500.0 eV  36.75 Ry    6.06 a.u.  10.90 10.90 10.90*2*pi/ulx,y,z
   ENINI  =  500.0     initial cutoff
   ENAUG  =  578.3 eV  augmentation charge cutoff
   NELM   =    160;   NELMIN=  2; NELMDL= -6     # of ELM steps 
   EDIFF  = 0.1E-05   stopping-criterion for ELM
   LREAL  =      T    real-space projection
   NLSPLINE    = F    spline interpolate recip. space projectors
   LCOMPAT=      F    compatible to vasp.4.4
   GGA_COMPAT  = T    GGA compatible to vasp.4.4-vasp.4.6
   LMAXPAW     = -100 max onsite density
   LMAXMIX     =    6 max onsite mixed and CHGCAR
   VOSKOWN=      0    Vosko Wilk Nusair interpolation
   ROPT   =   -0.00025  -0.00025  -0.00025
 Ionic relaxation
   EDIFFG = 0.1E-02   stopping-criterion for IOM
   NSW    =      0    number of steps for IOM
   NBLOCK =      1;   KBLOCK =      1    inner block; outer block 
   IBRION =     -1    ionic relax: 0-MD 1-quasi-New 2-CG
   NFREE  =      1    steps in history (QN), initial steepest desc. (CG)
   ISIF   =      3    stress and relaxation
   IWAVPR =     10    prediction:  0-non 1-charg 2-wave 3-comb
   ISYM   =      2    0-nonsym 1-usesym 2-fastsym
   LCORR  =      T    Harris-Foulkes like correction to forces

   POTIM  = 0.0100    time-step for ionic-motion
   TEIN   =    0.0    initial temperature
   TEBEG  =    0.0;   TEEND  =   0.0 temperature during run
   SMASS  =  -3.00    Nose mass-parameter (am)
   estimated Nose-frequenzy (Omega)   =  0.10E-29 period in steps = 0.63E+48 mass=  -0.817E-27a.u.
   SCALEE = 1.0000    scale energy and forces
   NPACO  =    256;   APACO  = 16.0  distance and # of slots for P.C.
   PSTRESS=    0.0 pullay stress

  Mass of Ions in am
   POMASS =  55.85 58.93118.71
  Ionic Valenz
   ZVAL   =  14.00 15.00  4.00
  Atomic Wigner-Seitz radii
   RWIGS  =   1.16  1.16  1.16
  virtual crystal weights 
   VCA    =   1.00  1.00  1.00
   NELECT =     188.0000    total number of electrons
   NUPDOWN=      -1.0000    fix difference up-down

 DOS related values:
   EMIN   =  10.00;   EMAX   =-10.00  energy-range for DOS
   EFERMI =   0.00
   ISMEAR =     1;   SIGMA  =   0.10  broadening in eV -4-tet -1-fermi 0-gaus

 Electronic relaxation 2 (details)
   IALGO  =     38    algorithm
   LDIAG  =      T    sub-space diagonalisation (order eigenvalues)
   LSUBROT=      F    optimize rotation matrix (better conditioning)
   TURBO    =      0    0=normal 1=particle mesh
   IRESTART =      0    0=no restart 2=restart with 2 vectors
   NREBOOT  =      0    no. of reboots
   NMIN     =      0    reboot dimension
   EREF     =   0.00    reference energy to select bands
   IMIX   =      4    mixing-type and parameters
     AMIX     =   0.18;   BMIX     =  0.00
     AMIX_MAG =   0.26;   BMIX_MAG =  0.01
     AMIN     =   0.10
     WC   =   100.;   INIMIX=   1;  MIXPRE=   1;  MAXMIX= -45

 Intra band minimization:
   WEIMIN = 0.0000     energy-eigenvalue tresh-hold
   EBREAK =  0.20E-08  absolut break condition
   DEPER  =   0.30     relativ break condition  

   TIME   =   0.40     timestep for ELM

  volume/ion in A,a.u.               =      13.35        90.12
  Fermi-wavevector in a.u.,A,eV,Ry     =   1.568732  2.964473 33.482831  2.460919
  Thomas-Fermi vector in A             =   2.670719
 
 Write flags
   LWAVE        =      F    write WAVECAR
   LDOWNSAMPLE  =      F    k-point downsampling of WAVECAR
   LCHARG       =      T    write CHGCAR
   LVTOT        =      F    write LOCPOT, total local potential
   LVHAR        =      F    write LOCPOT, Hartree potential only
   LELF         =      F    write electronic localiz. function (ELF)
   LORBIT       =     10    0 simple, 1 ext, 2 COOP (PROOUT), +10 PAW based schemes


 Dipole corrections
   LMONO  =      F    monopole corrections only (constant potential shift)
   LDIPOL =      F    correct potential (dipole corrections)
   IDIPOL =      0    1-x, 2-y, 3-z, 4-all directions 
   EPSILON=  1.0000000 bulk dielectric constant

 Exchange correlation treatment:
   GGA     =    --    GGA type
   LEXCH   =     8    internal setting for exchange type
   VOSKOWN=      0    Vosko Wilk Nusair interpolation
   LHFCALC =     F    Hartree Fock is set to
   LHFONE  =     F    Hartree Fock one center treatment
   AEXX    =    0.0000 exact exchange contribution

 Linear response parameters
   LEPSILON=     F    determine dielectric tensor
   LRPA    =     F    only Hartree local field effects (RPA)
   LNABLA  =     F    use nabla operator in PAW spheres
   LVEL    =     F    velocity operator in full k-point grid
   LINTERFAST=   F  fast interpolation
   KINTER  =     0    interpolate to denser k-point grid
   CSHIFT  =0.1000    complex shift for real part using Kramers Kronig
   OMEGAMAX=  -1.0    maximum frequency
   DEG_THRESHOLD= 0.2000000E-02 threshold for treating states as degnerate
   RTIME   =   -0.100 relaxation time in fs
  (WPLASMAI=    0.000 imaginary part of plasma frequency in eV, 0.658/RTIME)
   DFIELD  = 0.0000000 0.0000000 0.0000000 field for delta impulse in time
 
 Orbital magnetization related:
   ORBITALMAG=     F  switch on orbital magnetization
   LCHIMAG   =     F  perturbation theory with respect to B field
   DQ        =  0.001000  dq finite difference perturbation B field
   LLRAUG    =     F  two centre corrections for induced B field



--------------------------------------------------------------------------------------------------------


 Static calculation
 charge density and potential will be updated during run
 spin polarized calculation
 Variant of blocked Davidson
 Davidson routine will perform the subspace rotation
 perform sub-space diagonalisation
    after iterative eigenvector-optimisation
 modified Broyden-mixing scheme, WC =      100.0
 initial mixing is a Kerker type mixing with AMIX =  0.1800 and BMIX =      0.0025
 Hartree-type preconditioning will be used
 using additional bands           34
 real space projection scheme for non local part
 use partial core corrections
 calculate Harris-corrections to forces 
   (improved forces if not selfconsistent)
 use gradient corrections 
 use of overlap-Matrix (Vanderbilt PP)
 Methfessel and Paxton  Order N= 1 SIGMA  =   0.10


--------------------------------------------------------------------------------------------------------


  energy-cutoff  :      500.00
  volume of cell :      213.67
      direct lattice vectors                 reciprocal lattice vectors
     5.978681607  0.000000000  0.000000000     0.167260956  0.000000000  0.000000000
     0.000000000  5.978681607  0.000000000     0.000000000  0.167260956  0.000000000
     0.000000000  0.000000000  5.977582890     0.000000000  0.000000000  0.167291699

  length of vectors
     5.978681607  5.978681607  5.977582890     0.167260956  0.167260956  0.167291699


 
 k-points in units of 2pi/SCALE and weight: Ni7CoMn5CrSn2                           
   0.06324555  0.06324555  0.06325717       0.016
   0.18973665  0.06324555  0.06325717       0.031
   0.31622774  0.06324555  0.06325717       0.031
   0.44271884  0.06324555  0.06325717       0.031
   0.18973665  0.18973665  0.06325717       0.016
   0.31622774  0.18973665  0.06325717       0.031
   0.44271884  0.18973665  0.06325717       0.031
   0.31622774  0.31622774  0.06325717       0.016
   0.44271884  0.31622774  0.06325717       0.031
   0.44271884  0.44271884  0.06325717       0.016
   0.06324555  0.06324555  0.18977152       0.016
   0.18973665  0.06324555  0.18977152       0.031
   0.31622774  0.06324555  0.18977152       0.031
   0.44271884  0.06324555  0.18977152       0.031
   0.18973665  0.18973665  0.18977152       0.016
   0.31622774  0.18973665  0.18977152       0.031
   0.44271884  0.18973665  0.18977152       0.031
   0.31622774  0.31622774  0.18977152       0.016
   0.44271884  0.31622774  0.18977152       0.031
   0.44271884  0.44271884  0.18977152       0.016
   0.06324555  0.06324555  0.31628587       0.016
   0.18973665  0.06324555  0.31628587       0.031
   0.31622774  0.06324555  0.31628587       0.031
   0.44271884  0.06324555  0.31628587       0.031
   0.18973665  0.18973665  0.31628587       0.016
   0.31622774  0.18973665  0.31628587       0.031
   0.44271884  0.18973665  0.31628587       0.031
   0.31622774  0.31622774  0.31628587       0.016
   0.44271884  0.31622774  0.31628587       0.031
   0.44271884  0.44271884  0.31628587       0.016
   0.06324555  0.06324555  0.44280022       0.016
   0.18973665  0.06324555  0.44280022       0.031
   0.31622774  0.06324555  0.44280022       0.031
   0.44271884  0.06324555  0.44280022       0.031
   0.18973665  0.18973665  0.44280022       0.016
   0.31622774  0.18973665  0.44280022       0.031
   0.44271884  0.18973665  0.44280022       0.031
   0.31622774  0.31622774  0.44280022       0.016
   0.44271884  0.31622774  0.44280022       0.031
   0.44271884  0.44271884  0.44280022       0.016
 
 k-points in reciprocal lattice and weights: Ni7CoMn5CrSn2                           
   0.06250000  0.06250000  0.06250000       0.016
   0.18750000  0.06250000  0.06250000       0.031
   0.31250000  0.06250000  0.06250000       0.031
   0.43750000  0.06250000  0.06250000       0.031
   0.18750000  0.18750000  0.06250000       0.016
   0.31250000  0.18750000  0.06250000       0.031
   0.43750000  0.18750000  0.06250000       0.031
   0.31250000  0.31250000  0.06250000       0.016
   0.43750000  0.31250000  0.06250000       0.031
   0.43750000  0.43750000  0.06250000       0.016
   0.06250000  0.06250000  0.18750000       0.016
   0.18750000  0.06250000  0.18750000       0.031
   0.31250000  0.06250000  0.18750000       0.031
   0.43750000  0.06250000  0.18750000       0.031
   0.18750000  0.18750000  0.18750000       0.016
   0.31250000  0.18750000  0.18750000       0.031
   0.43750000  0.18750000  0.18750000       0.031
   0.31250000  0.31250000  0.18750000       0.016
   0.43750000  0.31250000  0.18750000       0.031
   0.43750000  0.43750000  0.18750000       0.016
   0.06250000  0.06250000  0.31250000       0.016
   0.18750000  0.06250000  0.31250000       0.031
   0.31250000  0.06250000  0.31250000       0.031
   0.43750000  0.06250000  0.31250000       0.031
   0.18750000  0.18750000  0.31250000       0.016
   0.31250000  0.18750000  0.31250000       0.031
   0.43750000  0.18750000  0.31250000       0.031
   0.31250000  0.31250000  0.31250000       0.016
   0.43750000  0.31250000  0.31250000       0.031
   0.43750000  0.43750000  0.31250000       0.016
   0.06250000  0.06250000  0.43750000       0.016
   0.18750000  0.06250000  0.43750000       0.031
   0.31250000  0.06250000  0.43750000       0.031
   0.43750000  0.06250000  0.43750000       0.031
   0.18750000  0.18750000  0.43750000       0.016
   0.31250000  0.18750000  0.43750000       0.031
   0.43750000  0.18750000  0.43750000       0.031
   0.31250000  0.31250000  0.43750000       0.016
   0.43750000  0.31250000  0.43750000       0.031
   0.43750000  0.43750000  0.43750000       0.016
 
 position of ions in fractional coordinates (direct lattice) 
   0.50000000  0.00000000  0.50000000
   0.00000000  0.50000000  0.50000000
   0.50000000  0.50000000  0.00000000
   0.00000000  0.00000000  0.00000000
   0.25000000  0.25000000  0.75000000
   0.25000000  0.75000000  0.25000000
   0.75000000  0.25000000  0.25000000
   0.75000000  0.75000000  0.75000000
   0.50000000  0.00000000  0.00000000
   0.00000000  0.50000000  0.00000000
   0.00000000  0.00000000  0.50000000
   0.50000000  0.50000000  0.50000000
   0.25000000  0.25000000  0.25000000
   0.75000000  0.25000000  0.75000000
   0.25000000  0.75000000  0.75000000
   0.75000000  0.75000000  0.25000000
 
 position of ions in cartesian coordinates  (Angst):
   2.98934080  0.00000000  2.98879144
   0.00000000  2.98934080  2.98879144
   2.98934080  2.98934080  0.00000000
   0.00000000  0.00000000  0.00000000
   1.49467040  1.49467040  4.48318717
   1.49467040  4.48401121  1.49439572
   4.48401121  1.49467040  1.49439572
   4.48401121  4.48401121  4.48318717
   2.98934080  0.00000000  0.00000000
   0.00000000  2.98934080  0.00000000
   0.00000000  0.00000000  2.98879144
   2.98934080  2.98934080  2.98879144
   1.49467040  1.49467040  1.49439572
   4.48401121  1.49467040  4.48318717
   1.49467040  4.48401121  4.48318717
   4.48401121  4.48401121  1.49439572
 


--------------------------------------------------------------------------------------------------------


 k-point   1 :   0.0625 0.0625 0.0625  plane waves:    5425
 k-point   2 :   0.1875 0.0625 0.0625  plane waves:    5427
 k-point   3 :   0.3125 0.0625 0.0625  plane waves:    5415
 k-point   4 :   0.4375 0.0625 0.0625  plane waves:    5412
 k-point   5 :   0.1875 0.1875 0.0625  plane waves:    5404
 k-point   6 :   0.3125 0.1875 0.0625  plane waves:    5425
 k-point   7 :   0.4375 0.1875 0.0625  plane waves:    5420
 k-point   8 :   0.3125 0.3125 0.0625  plane waves:    5421
 k-point   9 :   0.4375 0.3125 0.0625  plane waves:    5424
 k-point  10 :   0.4375 0.4375 0.0625  plane waves:    5419
 k-point  11 :   0.0625 0.0625 0.1875  plane waves:    5428
 k-point  12 :   0.1875 0.0625 0.1875  plane waves:    5404
 k-point  13 :   0.3125 0.0625 0.1875  plane waves:    5425
 k-point  14 :   0.4375 0.0625 0.1875  plane waves:    5420
 k-point  15 :   0.1875 0.1875 0.1875  plane waves:    5422
 k-point  16 :   0.3125 0.1875 0.1875  plane waves:    5431
 k-point  17 :   0.4375 0.1875 0.1875  plane waves:    5422
 k-point  18 :   0.3125 0.3125 0.1875  plane waves:    5431
 k-point  19 :   0.4375 0.3125 0.1875  plane waves:    5425
 k-point  20 :   0.4375 0.4375 0.1875  plane waves:    5440
 k-point  21 :   0.0625 0.0625 0.3125  plane waves:    5415
 k-point  22 :   0.1875 0.0625 0.3125  plane waves:    5425
 k-point  23 :   0.3125 0.0625 0.3125  plane waves:    5421
 k-point  24 :   0.4375 0.0625 0.3125  plane waves:    5424
 k-point  25 :   0.1875 0.1875 0.3125  plane waves:    5433
 k-point  26 :   0.3125 0.1875 0.3125  plane waves:    5431
 k-point  27 :   0.4375 0.1875 0.3125  plane waves:    5425
 k-point  28 :   0.3125 0.3125 0.3125  plane waves:    5425
 k-point  29 :   0.4375 0.3125 0.3125  plane waves:    5445
 k-point  30 :   0.4375 0.4375 0.3125  plane waves:    5448
 k-point  31 :   0.0625 0.0625 0.4375  plane waves:    5412
 k-point  32 :   0.1875 0.0625 0.4375  plane waves:    5420
 k-point  33 :   0.3125 0.0625 0.4375  plane waves:    5422
 k-point  34 :   0.4375 0.0625 0.4375  plane waves:    5419
 k-point  35 :   0.1875 0.1875 0.4375  plane waves:    5422
 k-point  36 :   0.3125 0.1875 0.4375  plane waves:    5425
 k-point  37 :   0.4375 0.1875 0.4375  plane waves:    5436
 k-point  38 :   0.3125 0.3125 0.4375  plane waves:    5445
 k-point  39 :   0.4375 0.3125 0.4375  plane waves:    5448
 k-point  40 :   0.4375 0.4375 0.4375  plane waves:    5451

 maximum and minimum number of plane-waves per node :       563      527

 maximum number of plane-waves:      5451
 maximum index in each direction: 
   IXMAX=   10   IYMAX=   10   IZMAX=   10
   IXMIN=  -11   IYMIN=  -11   IZMIN=  -11


 real space projection operators:
  total allocation   :      15343.03 KBytes
  max/ min on nodes  :       1630.28       1345.06


 parallel 3D FFT for wavefunctions:
    minimum data exchange during FFTs selected (reduces bandwidth)
 parallel 3D FFT for charge:
    minimum data exchange during FFTs selected (reduces bandwidth)


 total amount of memory used by VASP MPI-rank0    54942. kBytes
=======================================================================

   base      :      30000. kBytes
   nonlr-proj:       4727. kBytes
   fftplans  :       4343. kBytes
   grid      :       3686. kBytes
   one-center:         62. kBytes
   wavefun   :      12124. kBytes
 
     INWAV:  cpu time    0.0000: real time    0.0001
 Broyden mixing: mesh for mixing (old mesh)
   NGX = 21   NGY = 21   NGZ = 21
  (NGX  = 96   NGY  = 96   NGZ  = 96)
  gives a total of   9261 points

 initial charge density was supplied:
 charge density of overlapping atoms calculated
 number of electron     188.0000000 magnetization      23.2000000
 keeping initial charge density in first step


--------------------------------------------------------------------------------------------------------


 Maximum index for non-local projection operator         1031
 Maximum index for augmentation-charges         5621 (set IRDMAX)


--------------------------------------------------------------------------------------------------------


 First call to EWALD:  gamma=   0.296
 Maximum number of real-space cells 3x 3x 3
 Maximum number of reciprocal cells 3x 3x 3

    FEWALD:  cpu time    0.0040: real time    0.0015


--------------------------------------- Iteration      1(   1)  ---------------------------------------


    POTLOK:  cpu time    0.0840: real time    0.1798
    SETDIJ:  cpu time    0.3480: real time    0.3609
     EDDAV:  cpu time   12.2488: real time   12.2891
       DOS:  cpu time    0.0080: real time    0.0066
    --------------------------------------------
      LOOP:  cpu time   12.6888: real time   12.8364

 eigenvalue-minimisations  : 20984
 total energy-change (2. order) : 0.2636814E+04  (-0.9384268E+04)
 number of electron     188.0000000 magnetization      23.2000000
 augmentation part      188.0000000 magnetization      23.2000000

 Free energy of the ion-electron system (eV)
  ---------------------------------------------------
  alpha Z        PSCENC =      1110.95333925
  Ewald energy   TEWEN  =    -20806.94217810
  -Hartree energ DENC   =     -9506.71568177
  -exchange      EXHF   =         0.00000000
  -V(xc)+E(xc)   XCENC  =       467.54849856
  PAW double counting   =     26140.62212847   -27156.40297129
  entropy T*S    EENTRO =        -0.00053528
  eigenvalues    EBANDS =       559.56186998
  atomic energy  EATOM  =     31828.18944640
  Solvation  Ediel_sol  =         0.00000000
  ---------------------------------------------------
  free energy    TOTEN  =      2636.81391623 eV

  energy without entropy =     2636.81445151  energy(sigma->0) =     2636.81409466


--------------------------------------------------------------------------------------------------------




--------------------------------------- Iteration      1(   2)  ---------------------------------------


     EDDAV:  cpu time   12.0047: real time   12.0406
       DOS:  cpu time    0.0080: real time    0.0077
    --------------------------------------------
      LOOP:  cpu time   12.0128: real time   12.0483

 eigenvalue-minimisations  : 20480
 total energy-change (2. order) :-0.2398871E+04  (-0.2297616E+04)
 number of electron     188.0000000 magnetization      23.2000000
 augmentation part      188.0000000 magnetization      23.2000000

 Free energy of the ion-electron system (eV)
  ---------------------------------------------------
  alpha Z        PSCENC =      1110.95333925
  Ewald energy   TEWEN  =    -20806.94217810
  -Hartree energ DENC   =     -9506.71568177
  -exchange      EXHF   =         0.00000000
  -V(xc)+E(xc)   XCENC  =       467.54849856
  PAW double counting   =     26140.62212847   -27156.40297129
  entropy T*S    EENTRO =        -0.00121042
  eigenvalues    EBANDS =     -1839.30865570
  atomic energy  EATOM  =     31828.18944640
  Solvation  Ediel_sol  =         0.00000000
  ---------------------------------------------------
  free energy    TOTEN  =       237.94271541 eV

  energy without entropy =      237.94392583  energy(sigma->0) =      237.94311888


--------------------------------------------------------------------------------------------------------




--------------------------------------- Iteration      1(   3)  ---------------------------------------


     EDDAV:  cpu time   12.1488: real time   12.1884
       DOS:  cpu time    0.0080: real time    0.0077
    --------------------------------------------
      LOOP:  cpu time   12.1568: real time   12.1961

 eigenvalue-minimisations  : 20928
 total energy-change (2. order) :-0.3370253E+03  (-0.2943942E+03)
 number of electron     188.0000000 magnetization      23.2000000
 augmentation part      188.0000000 magnetization      23.2000000

 Free energy of the ion-electron system (eV)
  ---------------------------------------------------
  alpha Z        PSCENC =      1110.95333925
  Ewald energy   TEWEN  =    -20806.94217810
  -Hartree energ DENC   =     -9506.71568177
  -exchange      EXHF   =         0.00000000
  -V(xc)+E(xc)   XCENC  =       467.54849856
  PAW double counting   =     26140.62212847   -27156.40297129
  entropy T*S    EENTRO =        -0.00367079
  eigenvalues    EBANDS =     -2176.33148284
  atomic energy  EATOM  =     31828.18944640
  Solvation  Ediel_sol  =         0.00000000
  ---------------------------------------------------
  free energy    TOTEN  =       -99.08257210 eV

  energy without entropy =      -99.07890132  energy(sigma->0) =      -99.08134851


--------------------------------------------------------------------------------------------------------




--------------------------------------- Iteration      1(   4)  ---------------------------------------


     EDDAV:  cpu time   12.8208: real time   12.8584
       DOS:  cpu time    0.0080: real time    0.0077
    --------------------------------------------
      LOOP:  cpu time   12.8288: real time   12.8660

 eigenvalue-minimisations  : 22456
 total energy-change (2. order) :-0.2149419E+02  (-0.2094584E+02)
 number of electron     188.0000000 magnetization      23.2000000
 augmentation part      188.0000000 magnetization      23.2000000

 Free energy of the ion-electron system (eV)
  ---------------------------------------------------
  alpha Z        PSCENC =      1110.95333925
  Ewald energy   TEWEN  =    -20806.94217810
  -Hartree energ DENC   =     -9506.71568177
  -exchange      EXHF   =         0.00000000
  -V(xc)+E(xc)   XCENC  =       467.54849856
  PAW double counting   =     26140.62212847   -27156.40297129
  entropy T*S    EENTRO =        -0.00130739
  eigenvalues    EBANDS =     -2197.82803834
  atomic energy  EATOM  =     31828.18944640
  Solvation  Ediel_sol  =         0.00000000
  ---------------------------------------------------
  free energy    TOTEN  =      -120.57676421 eV

  energy without entropy =     -120.57545682  energy(sigma->0) =     -120.57632841


--------------------------------------------------------------------------------------------------------




--------------------------------------- Iteration      1(   5)  ---------------------------------------


     EDDAV:  cpu time   12.6368: real time   12.6771
       DOS:  cpu time    0.0080: real time    0.0076
    --------------------------------------------
      LOOP:  cpu time   12.6448: real time   12.6847

 eigenvalue-minimisations  : 22032
 total energy-change (2. order) :-0.3693239E+00  (-0.3682728E+00)
 number of electron     188.0000000 magnetization      23.2000000
 augmentation part      188.0000000 magnetization      23.2000000

 Free energy of the ion-electron system (eV)
  ---------------------------------------------------
  alpha Z        PSCENC =      1110.95333925
  Ewald energy   TEWEN  =    -20806.94217810
  -Hartree energ DENC   =     -9506.71568177
  -exchange      EXHF   =         0.00000000
  -V(xc)+E(xc)   XCENC  =       467.54849856
  PAW double counting   =     26140.62212847   -27156.40297129
  entropy T*S    EENTRO =        -0.00126002
  eigenvalues    EBANDS =     -2198.19740965
  atomic energy  EATOM  =     31828.18944640
  Solvation  Ediel_sol  =         0.00000000
  ---------------------------------------------------
  free energy    TOTEN  =      -120.94608815 eV

  energy without entropy =     -120.94482812  energy(sigma->0) =     -120.94566814


--------------------------------------------------------------------------------------------------------




--------------------------------------- Iteration      1(   6)  ---------------------------------------


     EDDAV:  cpu time   12.6128: real time   12.6487
       DOS:  cpu time    0.0080: real time    0.0078
    CHARGE:  cpu time    0.5280: real time    0.5296
    MIXING:  cpu time    0.0000: real time    0.0021
    --------------------------------------------
      LOOP:  cpu time   13.1488: real time   13.1883

 eigenvalue-minimisations  : 22048
 total energy-change (2. order) :-0.1041175E-01  (-0.1041138E-01)
 number of electron     188.0000006 magnetization      22.8385644
 augmentation part       96.3995369 magnetization      17.0358728

 Broyden mixing:
  rms(total) = 0.36750E+01    rms(broyden)= 0.36730E+01
  rms(prec ) = 0.55163E+01
  weight for this iteration     100.00

 Free energy of the ion-electron system (eV)
  ---------------------------------------------------
  alpha Z        PSCENC =      1110.95333925
  Ewald energy   TEWEN  =    -20806.94217810
  -Hartree energ DENC   =     -9506.71568177
  -exchange      EXHF   =         0.00000000
  -V(xc)+E(xc)   XCENC  =       467.54849856
  PAW double counting   =     26140.62212847   -27156.40297129
  entropy T*S    EENTRO =        -0.00125915
  eigenvalues    EBANDS =     -2198.20782227
  atomic energy  EATOM  =     31828.18944640
  Solvation  Ediel_sol  =         0.00000000
  ---------------------------------------------------
  free energy    TOTEN  =      -120.95649990 eV

  energy without entropy =     -120.95524074  energy(sigma->0) =     -120.95608018


--------------------------------------------------------------------------------------------------------




--------------------------------------- Iteration      1(   7)  ---------------------------------------


    POTLOK:  cpu time    0.0800: real time    0.0784
    SETDIJ:  cpu time    0.2440: real time    0.2448
     EDDAV:  cpu time   12.5368: real time   12.5778
       DOS:  cpu time    0.0080: real time    0.0074
    CHARGE:  cpu time    0.5200: real time    0.5202
    MIXING:  cpu time    0.0000: real time    0.0022
    --------------------------------------------
      LOOP:  cpu time   13.3888: real time   13.4309

 eigenvalue-minimisations  : 21920
 total energy-change (2. order) : 0.8898388E+01  (-0.3922005E+01)
 number of electron     188.0000007 magnetization      22.5577263
 augmentation part      102.4710788 magnetization      17.4772510

 Broyden mixing:
  rms(total) = 0.34945E+01    rms(broyden)= 0.34942E+01
  rms(prec ) = 0.59901E+01
  weight for this iteration     100.00

 eigenvalues of (default mixing * dielectric matrix)
  average eigenvalue GAMMA=   0.5185
  0.5185

 Free energy of the ion-electron system (eV)
  ---------------------------------------------------
  alpha Z        PSCENC =      1110.95333925
  Ewald energy   TEWEN  =    -20806.94217810
  -Hartree energ DENC   =     -9236.46576501
  -exchange      EXHF   =         0.00000000
  -V(xc)+E(xc)   XCENC  =       457.32451893
  PAW double counting   =     26366.31846783   -27356.56575806
  entropy T*S    EENTRO =         0.01544777
  eigenvalues    EBANDS =     -2474.88563107
  atomic energy  EATOM  =     31828.18944640
  Solvation  Ediel_sol  =         0.00000000
  ---------------------------------------------------
  free energy    TOTEN  =      -112.05811207 eV

  energy without entropy =     -112.07355984  energy(sigma->0) =     -112.06326132


--------------------------------------------------------------------------------------------------------




--------------------------------------- Iteration      1(   8)  ---------------------------------------


    POTLOK:  cpu time    0.0800: real time    0.0780
    SETDIJ:  cpu time    0.2440: real time    0.2461
     EDDAV:  cpu time   12.5648: real time   12.6041
       DOS:  cpu time    0.0080: real time    0.0078
    CHARGE:  cpu time    0.5400: real time    0.5401
    MIXING:  cpu time    0.0000: real time    0.0020
    --------------------------------------------
      LOOP:  cpu time   13.4368: real time   13.4780

 eigenvalue-minimisations  : 21952
 total energy-change (2. order) :-0.1248585E+01  (-0.2355786E+01)
 number of electron     188.0000007 magnetization      21.9635144
 augmentation part      103.1373601 magnetization      17.1462080

 Broyden mixing:
  rms(total) = 0.33256E+01    rms(broyden)= 0.33252E+01
  rms(prec ) = 0.55859E+01
  weight for this iteration     100.00

 eigenvalues of (default mixing * dielectric matrix)
  average eigenvalue GAMMA=   0.7476
  1.2600  0.2351

 Free energy of the ion-electron system (eV)
  ---------------------------------------------------
  alpha Z        PSCENC =      1110.95333925
  Ewald energy   TEWEN  =    -20806.94217810
  -Hartree energ DENC   =     -9219.98390996
  -exchange      EXHF   =         0.00000000
  -V(xc)+E(xc)   XCENC  =       456.57202090
  PAW double counting   =     26570.28094509   -27561.74293043
  entropy T*S    EENTRO =        -0.00091362
  eigenvalues    EBANDS =     -2490.63251699
  atomic energy  EATOM  =     31828.18944640
  Solvation  Ediel_sol  =         0.00000000
  ---------------------------------------------------
  free energy    TOTEN  =      -113.30669746 eV

  energy without entropy =     -113.30578384  energy(sigma->0) =     -113.30639292


--------------------------------------------------------------------------------------------------------




--------------------------------------- Iteration      1(   9)  ---------------------------------------


    POTLOK:  cpu time    0.0800: real time    0.0795
    SETDIJ:  cpu time    0.2440: real time    0.2462
     EDDAV:  cpu time   12.4648: real time   12.5008
       DOS:  cpu time    0.0080: real time    0.0078
    CHARGE:  cpu time    0.5240: real time    0.5247
    MIXING:  cpu time    0.0000: real time    0.0034
    --------------------------------------------
      LOOP:  cpu time   13.3208: real time   13.3625

 eigenvalue-minimisations  : 21608
 total energy-change (2. order) : 0.4312722E+01  (-0.2741372E+00)
 number of electron     188.0000007 magnetization      21.8634877
 augmentation part      103.4648862 magnetization      16.9298119

 Broyden mixing:
  rms(total) = 0.15442E+01    rms(broyden)= 0.15437E+01
  rms(prec ) = 0.19954E+01
  weight for this iteration     100.00

 eigenvalues of (default mixing * dielectric matrix)
  average eigenvalue GAMMA=   0.7428
  1.4491  0.5150  0.2642

 Free energy of the ion-electron system (eV)
  ---------------------------------------------------
  alpha Z        PSCENC =      1110.95333925
  Ewald energy   TEWEN  =    -20806.94217810
  -Hartree energ DENC   =     -9189.64912974
  -exchange      EXHF   =         0.00000000
  -V(xc)+E(xc)   XCENC  =       455.54900892
  PAW double counting   =     27002.01192471   -27997.43653160
  entropy T*S    EENTRO =        -0.00056858
  eigenvalues    EBANDS =     -2511.66928703
  atomic energy  EATOM  =     31828.18944640
  Solvation  Ediel_sol  =         0.00000000
  ---------------------------------------------------
  free energy    TOTEN  =      -108.99397577 eV

  energy without entropy =     -108.99340719  energy(sigma->0) =     -108.99378624


--------------------------------------------------------------------------------------------------------




--------------------------------------- Iteration      1(  10)  ---------------------------------------


    POTLOK:  cpu time    0.0800: real time    0.0796
    SETDIJ:  cpu time    0.2480: real time    0.2464
     EDDAV:  cpu time   12.9568: real time   12.9980
       DOS:  cpu time    0.0080: real time    0.0076
    CHARGE:  cpu time    0.5200: real time    0.5234
    MIXING:  cpu time    0.0040: real time    0.0023
    --------------------------------------------
      LOOP:  cpu time   13.8169: real time   13.8573

 eigenvalue-minimisations  : 22768
 total energy-change (2. order) : 0.6128989E-01  (-0.5906821E-01)
 number of electron     188.0000007 magnetization      21.7746067
 augmentation part      103.3250216 magnetization      16.9289690

 Broyden mixing:
  rms(total) = 0.13514E+01    rms(broyden)= 0.13513E+01
  rms(prec ) = 0.16623E+01
  weight for this iteration     100.00

 eigenvalues of (default mixing * dielectric matrix)
  average eigenvalue GAMMA=   0.7616
  1.6775  0.2466  0.5610  0.5610

 Free energy of the ion-electron system (eV)
  ---------------------------------------------------
  alpha Z        PSCENC =      1110.95333925
  Ewald energy   TEWEN  =    -20806.94217810
  -Hartree energ DENC   =     -9183.76476299
  -exchange      EXHF   =         0.00000000
  -V(xc)+E(xc)   XCENC  =       455.50362969
  PAW double counting   =     27258.48864464   -28258.33633812
  entropy T*S    EENTRO =        -0.00024495
  eigenvalues    EBANDS =     -2513.02422170
  atomic energy  EATOM  =     31828.18944640
  Solvation  Ediel_sol  =         0.00000000
  ---------------------------------------------------
  free energy    TOTEN  =      -108.93268588 eV

  energy without entropy =     -108.93244093  energy(sigma->0) =     -108.93260423


--------------------------------------------------------------------------------------------------------




--------------------------------------- Iteration      1(  11)  ---------------------------------------


    POTLOK:  cpu time    0.0760: real time    0.0775
    SETDIJ:  cpu time    0.2520: real time    0.2517
     EDDAV:  cpu time   12.5528: real time   12.5927
       DOS:  cpu time    0.0080: real time    0.0077
    CHARGE:  cpu time    0.5320: real time    0.5335
    MIXING:  cpu time    0.0000: real time    0.0021
    --------------------------------------------
      LOOP:  cpu time   13.4208: real time   13.4653

 eigenvalue-minimisations  : 21992
 total energy-change (2. order) : 0.1040073E-01  (-0.3557923E-01)
 number of electron     188.0000007 magnetization      21.6576971
 augmentation part      103.5059395 magnetization      16.8443904

 Broyden mixing:
  rms(total) = 0.96262E+00    rms(broyden)= 0.96258E+00
  rms(prec ) = 0.10668E+01
  weight for this iteration     100.00

 eigenvalues of (default mixing * dielectric matrix)
  average eigenvalue GAMMA=   1.6714
  5.6263  1.2168  0.9758  0.2496  0.2883

 Free energy of the ion-electron system (eV)
  ---------------------------------------------------
  alpha Z        PSCENC =      1110.95333925
  Ewald energy   TEWEN  =    -20806.94217810
  -Hartree energ DENC   =     -9171.72031925
  -exchange      EXHF   =         0.00000000
  -V(xc)+E(xc)   XCENC  =       455.37800826
  PAW double counting   =     27670.78286622   -28675.80822638
  entropy T*S    EENTRO =         0.00017604
  eigenvalues    EBANDS =     -2519.75539759
  atomic energy  EATOM  =     31828.18944640
  Solvation  Ediel_sol  =         0.00000000
  ---------------------------------------------------
  free energy    TOTEN  =      -108.92228515 eV

  energy without entropy =     -108.92246119  energy(sigma->0) =     -108.92234383


--------------------------------------------------------------------------------------------------------




--------------------------------------- Iteration      1(  12)  ---------------------------------------


    POTLOK:  cpu time    0.0800: real time    0.0795
    SETDIJ:  cpu time    0.2560: real time    0.2548
     EDDAV:  cpu time   12.6288: real time   12.6714
       DOS:  cpu time    0.0080: real time    0.0078
    CHARGE:  cpu time    0.5360: real time    0.5376
    MIXING:  cpu time    0.0040: real time    0.0039
    --------------------------------------------
      LOOP:  cpu time   13.5128: real time   13.5550

 eigenvalue-minimisations  : 22104
 total energy-change (2. order) :-0.1892202E+00  (-0.8049902E-01)
 number of electron     188.0000007 magnetization      21.7553846
 augmentation part      103.2898747 magnetization      17.2751534

 Broyden mixing:
  rms(total) = 0.28726E+00    rms(broyden)= 0.28717E+00
  rms(prec ) = 0.42204E+00
  weight for this iteration     100.00

 eigenvalues of (default mixing * dielectric matrix)
  average eigenvalue GAMMA=   1.4949
  5.0906  1.2549  1.2549  0.8356  0.2492  0.2845

 Free energy of the ion-electron system (eV)
  ---------------------------------------------------
  alpha Z        PSCENC =      1110.95333925
  Ewald energy   TEWEN  =    -20806.94217810
  -Hartree energ DENC   =     -9149.85419218
  -exchange      EXHF   =         0.00000000
  -V(xc)+E(xc)   XCENC  =       455.94278942
  PAW double counting   =     29129.47856814   -30156.06025707
  entropy T*S    EENTRO =        -0.00054471
  eigenvalues    EBANDS =     -2520.81847654
  atomic energy  EATOM  =     31828.18944640
  Solvation  Ediel_sol  =         0.00000000
  ---------------------------------------------------
  free energy    TOTEN  =      -109.11150539 eV

  energy without entropy =     -109.11096068  energy(sigma->0) =     -109.11132382


--------------------------------------------------------------------------------------------------------




--------------------------------------- Iteration      1(  13)  ---------------------------------------


    POTLOK:  cpu time    0.0760: real time    0.0773
    SETDIJ:  cpu time    0.2640: real time    0.2654
     EDDAV:  cpu time   12.3048: real time   12.3402
       DOS:  cpu time    0.0080: real time    0.0079
    CHARGE:  cpu time    0.5200: real time    0.5236
    MIXING:  cpu time    0.0040: real time    0.0025
    --------------------------------------------
      LOOP:  cpu time   13.1768: real time   13.2168

 eigenvalue-minimisations  : 21344
 total energy-change (2. order) : 0.1523593E-01  (-0.1358127E-01)
 number of electron     188.0000007 magnetization      21.9469629
 augmentation part      103.3938435 magnetization      17.4630893

 Broyden mixing:
  rms(total) = 0.19009E+00    rms(broyden)= 0.19008E+00
  rms(prec ) = 0.22546E+00
  weight for this iteration     100.00

 eigenvalues of (default mixing * dielectric matrix)
  average eigenvalue GAMMA=   1.8391
  4.6481  4.6481  1.1632  0.9808  0.9001  0.2493  0.2845

 Free energy of the ion-electron system (eV)
  ---------------------------------------------------
  alpha Z        PSCENC =      1110.95333925
  Ewald energy   TEWEN  =    -20806.94217810
  -Hartree energ DENC   =     -9149.56627854
  -exchange      EXHF   =         0.00000000
  -V(xc)+E(xc)   XCENC  =       455.90344895
  PAW double counting   =     29037.52089370   -30062.94804815
  entropy T*S    EENTRO =        -0.00036477
  eigenvalues    EBANDS =     -2522.20652821
  atomic energy  EATOM  =     31828.18944640
  Solvation  Ediel_sol  =         0.00000000
  ---------------------------------------------------
  free energy    TOTEN  =      -109.09626946 eV

  energy without entropy =     -109.09590469  energy(sigma->0) =     -109.09614787


--------------------------------------------------------------------------------------------------------




--------------------------------------- Iteration      1(  14)  ---------------------------------------


    POTLOK:  cpu time    0.0760: real time    0.0778
    SETDIJ:  cpu time    0.2520: real time    0.2524
     EDDAV:  cpu time   12.2208: real time   12.2572
       DOS:  cpu time    0.0080: real time    0.0077
    CHARGE:  cpu time    0.5240: real time    0.5278
    MIXING:  cpu time    0.0040: real time    0.0027
    --------------------------------------------
      LOOP:  cpu time   13.0848: real time   13.1256

 eigenvalue-minimisations  : 21176
 total energy-change (2. order) :-0.1719573E-02  (-0.4943694E-02)
 number of electron     188.0000007 magnetization      21.9584842
 augmentation part      103.3445031 magnetization      17.5077146

 Broyden mixing:
  rms(total) = 0.89463E-01    rms(broyden)= 0.89451E-01
  rms(prec ) = 0.12849E+00
  weight for this iteration     100.00

 eigenvalues of (default mixing * dielectric matrix)
  average eigenvalue GAMMA=   1.8938
  6.2693  4.0644  1.3687  1.0275  1.0275  0.8596  0.2493  0.2845

 Free energy of the ion-electron system (eV)
  ---------------------------------------------------
  alpha Z        PSCENC =      1110.95333925
  Ewald energy   TEWEN  =    -20806.94217810
  -Hartree energ DENC   =     -9149.77739777
  -exchange      EXHF   =         0.00000000
  -V(xc)+E(xc)   XCENC  =       456.18774177
  PAW double counting   =     29140.97255966   -30169.27227035
  entropy T*S    EENTRO =        -0.00045768
  eigenvalues    EBANDS =     -2519.40877221
  atomic energy  EATOM  =     31828.18944640
  Solvation  Ediel_sol  =         0.00000000
  ---------------------------------------------------
  free energy    TOTEN  =      -109.09798904 eV

  energy without entropy =     -109.09753136  energy(sigma->0) =     -109.09783648


--------------------------------------------------------------------------------------------------------




--------------------------------------- Iteration      1(  15)  ---------------------------------------


    POTLOK:  cpu time    0.0760: real time    0.0781
    SETDIJ:  cpu time    0.2600: real time    0.2620
     EDDAV:  cpu time   13.4848: real time   13.5299
       DOS:  cpu time    0.0080: real time    0.0077
    CHARGE:  cpu time    0.5240: real time    0.5255
    MIXING:  cpu time    0.0040: real time    0.0047
    --------------------------------------------
      LOOP:  cpu time   14.3569: real time   14.4080

 eigenvalue-minimisations  : 24104
 total energy-change (2. order) : 0.1319340E-02  (-0.4870842E-03)
 number of electron     188.0000007 magnetization      21.9474515
 augmentation part      103.3590688 magnetization      17.5134751

 Broyden mixing:
  rms(total) = 0.29092E-01    rms(broyden)= 0.29080E-01
  rms(prec ) = 0.34748E-01
  weight for this iteration     100.00

 eigenvalues of (default mixing * dielectric matrix)
  average eigenvalue GAMMA=   1.9220
  5.7923  4.1631  2.7162  1.1923  1.0242  1.0242  0.8524  0.2493  0.2845

 Free energy of the ion-electron system (eV)
  ---------------------------------------------------
  alpha Z        PSCENC =      1110.95333925
  Ewald energy   TEWEN  =    -20806.94217810
  -Hartree energ DENC   =     -9147.22268958
  -exchange      EXHF   =         0.00000000
  -V(xc)+E(xc)   XCENC  =       456.20010853
  PAW double counting   =     29233.44106429   -30262.90274424
  entropy T*S    EENTRO =        -0.00051834
  eigenvalues    EBANDS =     -2520.81249790
  atomic energy  EATOM  =     31828.18944640
  Solvation  Ediel_sol  =         0.00000000
  ---------------------------------------------------
  free energy    TOTEN  =      -109.09666970 eV

  energy without entropy =     -109.09615136  energy(sigma->0) =     -109.09649692


--------------------------------------------------------------------------------------------------------




--------------------------------------- Iteration      1(  16)  ---------------------------------------


    POTLOK:  cpu time    0.0760: real time    0.0780
    SETDIJ:  cpu time    0.2520: real time    0.2522
     EDDAV:  cpu time   12.5368: real time   12.5740
       DOS:  cpu time    0.0080: real time    0.0080
    CHARGE:  cpu time    0.5280: real time    0.5289
    MIXING:  cpu time    0.0000: real time    0.0022
    --------------------------------------------
      LOOP:  cpu time   13.4008: real time   13.4435

 eigenvalue-minimisations  : 21936
 total energy-change (2. order) : 0.3020216E-04  (-0.2589542E-03)
 number of electron     188.0000007 magnetization      21.9548249
 augmentation part      103.3679224 magnetization      17.5173386

 Broyden mixing:
  rms(total) = 0.22763E-01    rms(broyden)= 0.22749E-01
  rms(prec ) = 0.34749E-01
  weight for this iteration     100.00

 eigenvalues of (default mixing * dielectric matrix)
  average eigenvalue GAMMA=   2.0022
  6.3072  3.9825  3.9825  0.2493  0.2845  1.3149  1.0304  1.0304  0.8760  0.9648

 Free energy of the ion-electron system (eV)
  ---------------------------------------------------
  alpha Z        PSCENC =      1110.95333925
  Ewald energy   TEWEN  =    -20806.94217810
  -Hartree energ DENC   =     -9147.32263837
  -exchange      EXHF   =         0.00000000
  -V(xc)+E(xc)   XCENC  =       456.14564817
  PAW double counting   =     29205.12552716   -30233.79809784
  entropy T*S    EENTRO =        -0.00051173
  eigenvalues    EBANDS =     -2521.44717444
  atomic energy  EATOM  =     31828.18944640
  Solvation  Ediel_sol  =         0.00000000
  ---------------------------------------------------
  free energy    TOTEN  =      -109.09663950 eV

  energy without entropy =     -109.09612776  energy(sigma->0) =     -109.09646892


--------------------------------------------------------------------------------------------------------




--------------------------------------- Iteration      1(  17)  ---------------------------------------


    POTLOK:  cpu time    0.0800: real time    0.0783
    SETDIJ:  cpu time    0.2520: real time    0.2525
     EDDAV:  cpu time   12.8408: real time   12.8817
       DOS:  cpu time    0.0080: real time    0.0078
    CHARGE:  cpu time    0.5240: real time    0.5253
    MIXING:  cpu time    0.0040: real time    0.0046
    --------------------------------------------
      LOOP:  cpu time   13.7089: real time   13.7501

 eigenvalue-minimisations  : 22592
 total energy-change (2. order) : 0.9825514E-04  (-0.3025978E-04)
 number of electron     188.0000007 magnetization      21.9548714
 augmentation part      103.3632741 magnetization      17.5201270

 Broyden mixing:
  rms(total) = 0.89862E-02    rms(broyden)= 0.89844E-02
  rms(prec ) = 0.12784E-01
  weight for this iteration     100.00

 eigenvalues of (default mixing * dielectric matrix)
  average eigenvalue GAMMA=   2.0009
  6.1018  4.9051  3.8881  0.2493  0.2845  1.2828  1.2828  0.8531  1.0870  1.0870
  0.9883

 Free energy of the ion-electron system (eV)
  ---------------------------------------------------
  alpha Z        PSCENC =      1110.95333925
  Ewald energy   TEWEN  =    -20806.94217810
  -Hartree energ DENC   =     -9147.50368948
  -exchange      EXHF   =         0.00000000
  -V(xc)+E(xc)   XCENC  =       456.15920067
  PAW double counting   =     29213.74973994   -30242.49238003
  entropy T*S    EENTRO =        -0.00054555
  eigenvalues    EBANDS =     -2521.20947434
  atomic energy  EATOM  =     31828.18944640
  Solvation  Ediel_sol  =         0.00000000
  ---------------------------------------------------
  free energy    TOTEN  =      -109.09654124 eV

  energy without entropy =     -109.09599569  energy(sigma->0) =     -109.09635939


--------------------------------------------------------------------------------------------------------




--------------------------------------- Iteration      1(  18)  ---------------------------------------


    POTLOK:  cpu time    0.0760: real time    0.0773
    SETDIJ:  cpu time    0.2520: real time    0.2518
     EDDAV:  cpu time   13.6929: real time   13.7351
       DOS:  cpu time    0.0080: real time    0.0078
    CHARGE:  cpu time    0.5280: real time    0.5279
    MIXING:  cpu time    0.0000: real time    0.0030
    --------------------------------------------
      LOOP:  cpu time   14.5569: real time   14.6029

 eigenvalue-minimisations  : 24576
 total energy-change (2. order) : 0.2095805E-04  (-0.4479643E-05)
 number of electron     188.0000007 magnetization      21.9590840
 augmentation part      103.3646385 magnetization      17.5242540

 Broyden mixing:
  rms(total) = 0.50096E-02    rms(broyden)= 0.50082E-02
  rms(prec ) = 0.59250E-02
  weight for this iteration     100.00

 eigenvalues of (default mixing * dielectric matrix)
  average eigenvalue GAMMA=   2.1670
  6.5366  4.6712  4.3843  3.5603  0.2493  0.2845  1.4256  1.0832  1.0151  1.0151
  0.8655  0.9137

 Free energy of the ion-electron system (eV)
  ---------------------------------------------------
  alpha Z        PSCENC =      1110.95333925
  Ewald energy   TEWEN  =    -20806.94217810
  -Hartree energ DENC   =     -9147.54840745
  -exchange      EXHF   =         0.00000000
  -V(xc)+E(xc)   XCENC  =       456.15321965
  PAW double counting   =     29208.90369779   -30237.53890630
  entropy T*S    EENTRO =        -0.00054849
  eigenvalues    EBANDS =     -2521.26618304
  atomic energy  EATOM  =     31828.18944640
  Solvation  Ediel_sol  =         0.00000000
  ---------------------------------------------------
  free energy    TOTEN  =      -109.09652028 eV

  energy without entropy =     -109.09597179  energy(sigma->0) =     -109.09633745


--------------------------------------------------------------------------------------------------------




[...]
  0.000   0.000   0.006   0.000   0.000   0.000  -0.000   0.000  -0.004   0.000  -0.000   0.000  -2.443   0.000  -0.000   0.000
  0.000   0.000   0.000   0.000   0.006   0.000  -0.000   0.000  -0.000   0.000  -0.004   0.000  -0.000   0.000  -2.444   0.000
  0.000   0.000  -0.000   0.000   0.000   0.000  -0.000   0.000   0.000   0.000   0.000   0.000   0.000   0.000  -0.000   0.000
  0.006   0.000   0.000   0.000   0.000   0.000  -0.004   0.000  -0.000   0.000  -0.000   0.000  -0.000   0.000  -0.000   0.000
  0.000   0.000  -0.000   0.000  -0.000   0.000  -0.000   0.000   0.000   0.000  -0.000   0.000   0.000   0.000   0.000   0.000
 -0.000   0.000   0.000   0.000  -0.000   0.000  -0.000   0.000   0.000   0.000  -0.000   0.000   0.000   0.000   0.000   0.000
 -0.000   0.000   0.000   0.000  -0.000   0.000  -0.000   0.000   0.000   0.000  -0.000   0.000   0.000   0.000   0.000   0.000
 pseudopotential strength for first ion, spin component:           2
-43.246   0.000  -0.000   0.000  -0.000   0.000   6.857   0.000   0.000   0.000   0.000   0.000   0.000   0.000   0.000   0.000
 -0.000   0.000 -43.246   0.000  -0.000   0.000   0.000   0.000   6.857   0.000   0.000   0.000  -0.016   0.000   0.000   0.000
 -0.000   0.000  -0.000   0.000 -43.246   0.000   0.000   0.000   0.000   0.000   6.857   0.000   0.000   0.000  -0.016   0.000
  6.857   0.000   0.000   0.000   0.000   0.000   5.854   0.000   0.000   0.000   0.000   0.000  -0.000   0.000  -0.000   0.000
  0.000   0.000   6.857   0.000   0.000   0.000   0.000   0.000   5.854   0.000   0.000   0.000   0.006   0.000  -0.000   0.000
  0.000   0.000   0.000   0.000   6.857   0.000   0.000   0.000   0.000   0.000   5.854   0.000  -0.000   0.000   0.006   0.000
  0.000   0.000  -0.016   0.000   0.000   0.000  -0.000   0.000   0.006   0.000  -0.000   0.000  -0.764   0.000   0.000   0.000
  0.000   0.000   0.000   0.000  -0.016   0.000  -0.000   0.000  -0.000   0.000   0.006   0.000   0.000   0.000  -0.764   0.000
  0.000   0.000  -0.000   0.000  -0.000   0.000   0.000   0.000   0.000   0.000   0.000   0.000   0.000   0.000  -0.000   0.000
 -0.016   0.000   0.000   0.000   0.000   0.000   0.006   0.000  -0.000   0.000  -0.000   0.000   0.000   0.000   0.000   0.000
  0.000   0.000  -0.000   0.000   0.000   0.000   0.000   0.000   0.000   0.000  -0.000   0.000   0.000   0.000   0.000   0.000
  0.000   0.000  -0.016   0.000   0.000   0.000  -0.000   0.000   0.006   0.000  -0.000   0.000  -1.302   0.000   0.000   0.000
  0.000   0.000   0.000   0.000  -0.016   0.000  -0.000   0.000  -0.000   0.000   0.006   0.000   0.000   0.000  -1.302   0.000
  0.000   0.000  -0.000   0.000  -0.000   0.000  -0.000   0.000   0.000   0.000   0.000   0.000   0.000   0.000  -0.000   0.000
 -0.016   0.000   0.000   0.000   0.000   0.000   0.006   0.000  -0.000   0.000  -0.000   0.000   0.000   0.000   0.000   0.000
  0.000   0.000  -0.000   0.000   0.000   0.000   0.000   0.000   0.000   0.000  -0.000   0.000   0.000   0.000   0.000   0.000
 -0.000   0.000   0.000   0.000  -0.000   0.000  -0.000   0.000   0.000   0.000  -0.000   0.000   0.000   0.000   0.000   0.000
 -0.000   0.000   0.000   0.000  -0.000   0.000  -0.000   0.000   0.000   0.000  -0.000   0.000   0.000   0.000   0.000   0.000
 total augmentation occupancy for first ion, spin component:           1
  1.994   0.000   0.000  -0.018   0.000   0.000  -0.000   0.000   0.000  -0.008  -0.000   0.000  -0.000  -0.000   0.008  -0.000
  0.000   1.994   0.000   0.000  -0.018   0.000  -0.008   0.000   0.000   0.000   0.000   0.008   0.000  -0.000   0.000   0.000
  0.000   0.000   1.994   0.000   0.000  -0.018  -0.000  -0.008   0.000  -0.000   0.000  -0.000   0.008  -0.000  -0.000  -0.000
 -0.018   0.000   0.000   0.164   0.000  -0.000  -0.000   0.000   0.000  -0.053  -0.000   0.000   0.000   0.000   0.029   0.000
  0.000  -0.018   0.000   0.000   0.164   0.000  -0.053   0.000   0.000   0.000   0.000   0.029  -0.000   0.000   0.000  -0.000
  0.000   0.000  -0.018   0.000  -0.000   0.164  -0.000  -0.053  -0.000  -0.000   0.000   0.000   0.029   0.000  -0.000   0.000
 -0.000  -0.008  -0.000  -0.000  -0.053  -0.000   1.815  -0.000   0.000  -0.000   0.000  -0.955  -0.000   0.000   0.000   0.000
  0.000   0.000  -0.008  -0.000   0.000  -0.053  -0.000   1.815   0.000   0.000   0.000   0.000  -0.955   0.000   0.000  -0.000
  0.000  -0.000  -0.000  -0.000  -0.000   0.000   0.000   0.000   2.215   0.000   0.000   0.000   0.000  -1.252   0.000   0.000
 -0.008   0.000  -0.000  -0.053   0.000   0.000   0.000   0.000   0.000   1.815   0.000   0.000   0.000  -0.000  -0.955   0.000
  0.000   0.000   0.000   0.000   0.000   0.000   0.000  -0.000   0.000   0.000   2.216   0.000  -0.000  -0.000   0.000  -1.252
  0.000   0.008  -0.000  -0.000   0.029   0.000  -0.955  -0.000  -0.000   0.000   0.000   1.545  -0.000  -0.000   0.000  -0.000
 -0.000   0.000   0.008   0.000  -0.000   0.029   0.000  -0.955  -0.000   0.000   0.000   0.000   1.545  -0.000   0.000  -0.000
  0.000   0.000   0.000   0.000   0.000   0.000   0.000   0.000  -1.252  -0.000  -0.000   0.000   0.000   1.517  -0.000  -0.000
  0.008   0.000  -0.000   0.029   0.000   0.000  -0.000   0.000   0.000  -0.955  -0.000   0.000  -0.000   0.000   1.545   0.000
 -0.000   0.000   0.000   0.000  -0.000   0.000   0.000  -0.000   0.000  -0.000  -1.252  -0.000  -0.000  -0.000   0.000   1.517
  0.000   0.000   0.000   0.000   0.000   0.000   0.000  -0.000  -0.000   0.000   0.000  -0.000   0.000   0.000   0.000   0.000
  0.000   0.000   0.000   0.000   0.000   0.000   0.000  -0.000  -0.000  -0.000   0.000   0.000  -0.000   0.000  -0.000   0.000
 total augmentation occupancy for first ion, spin component:           2
 -0.002   0.000   0.000  -0.006   0.000   0.000  -0.000   0.000   0.000  -0.008  -0.000  -0.000   0.000   0.000   0.009  -0.000
  0.000  -0.002   0.000   0.000  -0.006   0.000  -0.008  -0.000   0.000   0.000   0.000   0.009  -0.000   0.000   0.000  -0.000
  0.000   0.000  -0.002   0.000   0.000  -0.006   0.000  -0.008   0.000   0.000   0.000  -0.000   0.009   0.000   0.000   0.000
 -0.006   0.000   0.000  -0.003  -0.000   0.000   0.000   0.000   0.000   0.044   0.000  -0.000  -0.000   0.000  -0.002   0.000
  0.000  -0.006   0.000  -0.000  -0.003  -0.000   0.044   0.000   0.000  -0.000   0.000  -0.002  -0.000   0.000   0.000  -0.000
  0.000   0.000  -0.006   0.000  -0.000  -0.003   0.000   0.044   0.000   0.000  -0.000   0.000  -0.002   0.000   0.000  -0.000
 -0.000  -0.008   0.000   0.000   0.044   0.000   0.948  -0.000  -0.000   0.000  -0.000  -0.228  -0.000   0.000   0.000  -0.000
  0.000  -0.000  -0.008  -0.000  -0.000   0.044  -0.000   0.949  -0.000   0.000   0.000  -0.000  -0.228   0.000  -0.000   0.000
  0.000   0.000   0.000   0.000   0.000   0.000  -0.000  -0.000   1.720   0.000   0.000  -0.000   0.000  -0.491  -0.000  -0.000
 -0.008   0.000   0.000   0.044  -0.000  -0.000   0.000  -0.000  -0.000   0.949  -0.000   0.000   0.000   0.000  -0.228   0.000
  0.000   0.000   0.000   0.000   0.000  -0.000   0.000  -0.000   0.000   0.000   1.720  -0.000   0.000   0.000  -0.000  -0.491
 -0.000   0.009  -0.000  -0.000  -0.002   0.000  -0.228   0.000  -0.000   0.000  -0.000  -0.192   0.000  -0.000  -0.000   0.000
  0.000  -0.000   0.009  -0.000  -0.000  -0.002  -0.000  -0.228  -0.000   0.000   0.000   0.000  -0.192   0.000   0.000  -0.000
 -0.000  -0.000  -0.000   0.000   0.000   0.000   0.000  -0.000  -0.491   0.000   0.000  -0.000   0.000  -0.093   0.000  -0.000
  0.009   0.000   0.000  -0.002   0.000   0.000  -0.000  -0.000  -0.000  -0.228  -0.000  -0.000   0.000   0.000  -0.192  -0.000
  0.000  -0.000   0.000   0.000  -0.000  -0.000  -0.000  -0.000  -0.000  -0.000  -0.491   0.000   0.000   0.000   0.000  -0.093
  0.000   0.000   0.000   0.000   0.000   0.000   0.000   0.000  -0.000  -0.000  -0.000  -0.000  -0.000  -0.000   0.000   0.000
  0.000   0.000   0.000   0.000   0.000  -0.000   0.000   0.000  -0.000  -0.000  -0.000   0.000   0.000   0.000   0.000   0.000


------------------------ aborting loop because EDIFF is reached ----------------------------------------


 


 total charge     
 
# of ion       s       p       d       tot
------------------------------------------
    1        0.310   6.305   6.243  12.858
    2        0.310   6.305   6.243  12.858
    3        0.310   6.305   6.243  12.858
    4        0.310   6.305   6.243  12.858
    5        0.335   6.312   6.015  12.662
    6        0.335   6.312   6.015  12.662
    7        0.335   6.312   6.015  12.662
    8        0.335   6.312   6.015  12.662
    9        0.396   6.420   7.425  14.241
   10        0.396   6.420   7.425  14.241
   11        0.396   6.420   7.425  14.241
   12        0.396   6.420   7.425  14.241
   13        1.309   2.063   0.369   3.740
   14        1.309   2.063   0.369   3.740
   15        1.309   2.063   0.369   3.740
   16        1.309   2.063   0.369   3.740
--------------------------------------------------
tot          9.400  84.397  80.207 174.004
 


 magnetization (x)
 
# of ion       s       p       d       tot
------------------------------------------
    1        0.005  -0.007   1.843   1.841
    2        0.005  -0.007   1.843   1.841
    3        0.005  -0.007   1.843   1.841
    4        0.005  -0.007   1.843   1.841
    5        0.003  -0.007   2.752   2.748
    6        0.003  -0.007   2.752   2.748
    7        0.003  -0.007   2.752   2.748
    8        0.003  -0.007   2.752   2.748
    9       -0.009  -0.031   1.110   1.069
   10       -0.009  -0.031   1.110   1.069
   11       -0.009  -0.031   1.110   1.069
   12       -0.009  -0.031   1.110   1.069
   13       -0.001  -0.087  -0.029  -0.117
   14       -0.001  -0.087  -0.029  -0.117
   15       -0.001  -0.087  -0.029  -0.117
   16       -0.001  -0.087  -0.029  -0.117
--------------------------------------------------
tot         -0.010  -0.532  22.707  22.165
 
    CHARGE:  cpu time    0.6600: real time    0.6614
    FORLOC:  cpu time    0.0040: real time    0.0048
    FORNL :  cpu time    2.8122: real time    2.8193
    STRESS:  cpu time    8.6085: real time    8.6367
    FORCOR:  cpu time    0.0720: real time    0.0719
    FORHAR:  cpu time    0.0080: real time    0.0111
    MIXING:  cpu time    0.0040: real time    0.0019
    OFIELD:  cpu time    0.0000: real time    0.0000

  FORCE on cell =-STRESS in cart. coord.  units (eV):
  Direction    XX          YY          ZZ          XY          YZ          ZX
  --------------------------------------------------------------------------------------
  Alpha Z  1110.95334  1110.95334  1110.95334
  Ewald   -6935.75198 -6935.75198 -6935.49797    -0.00000     0.00000     0.00000
  Hartree  3049.12831  3049.12831  3049.33166    -0.00000    -0.00000    -0.00000
  E(xc)   -1192.32520 -1192.32520 -1192.32517    -0.00000    -0.00000    -0.00000
  Local     746.40840   746.40840   745.94394     0.00000     0.00000     0.00000
  n-local  -202.45791  -197.46321  -199.92069    -0.56864    -0.83062    -0.31630
  augment  1668.60965  1668.60965  1668.61167     0.00000    -0.00000     0.00000
  Kinetic  1749.26827  1756.60343  1752.94460    -0.58734    -0.96462    -0.21211
  Fock        0.00000     0.00000     0.00000     0.00000     0.00000     0.00000
  -------------------------------------------------------------------------------------
  Total      -0.00219    -0.00219     0.04139     0.00000     0.00000     0.00000
  in kB      -0.01640    -0.01640     0.31040     0.00000     0.00000     0.00000
  external pressure =        0.09 kB  Pullay stress =        0.00 kB


 VOLUME and BASIS-vectors are now :
 -----------------------------------------------------------------------------
  energy-cutoff  :      500.00
  volume of cell :      213.67
      direct lattice vectors                 reciprocal lattice vectors
     5.978681607  0.000000000  0.000000000     0.167260956  0.000000000  0.000000000
     0.000000000  5.978681607  0.000000000     0.000000000  0.167260956  0.000000000
     0.000000000  0.000000000  5.977582890     0.000000000  0.000000000  0.167291699

  length of vectors
     5.978681607  5.978681607  5.977582890     0.167260956  0.167260956  0.167291699


 FORCES acting on ions
    electron-ion (+dipol)            ewald-force                    non-local-force                 convergence-correction
 -----------------------------------------------------------------------------------------------
   0.540E-10 0.517E-10 0.706E-10   -.711E-13 -.142E-13 0.426E-13   0.173E-17 -.347E-17 0.000E+00   0.144E-12 -.250E-12 -.584E-12
   0.520E-10 0.535E-10 0.534E-10   -.782E-13 0.000E+00 0.426E-13   0.347E-17 -.347E-17 0.260E-17   0.160E-12 -.655E-13 -.616E-12
   0.539E-10 0.707E-10 0.514E-10   -.711E-13 0.000E+00 0.355E-13   0.000E+00 -.347E-17 0.260E-17   0.138E-12 -.563E-13 -.437E-12
   0.520E-10 0.517E-10 0.514E-10   -.782E-13 -.142E-13 0.355E-13   0.173E-17 -.347E-17 -.520E-17   0.153E-12 -.144E-12 -.485E-12
   -.221E-10 -.243E-10 -.212E-10   -.297E-13 -.578E-13 -.140E-12   -.130E-17 0.000E+00 -.130E-17   -.135E-13 0.285E-12 0.581E-13
   -.221E-10 -.211E-10 -.244E-10   -.297E-13 -.558E-13 -.113E-12   -.781E-17 0.000E+00 -.390E-17   -.131E-13 0.319E-12 -.566E-13
   -.205E-10 -.224E-10 -.225E-10   -.278E-13 -.578E-13 -.113E-12   -.304E-17 0.000E+00 -.434E-18   -.168E-13 0.332E-12 -.122E-12
   -.205E-10 -.376E-10 -.377E-10   -.278E-13 -.558E-13 -.140E-12   0.434E-17 0.000E+00 0.304E-17   -.569E-13 0.271E-12 0.231E-13
   0.497E-10 0.483E-10 0.483E-10   0.924E-13 0.355E-13 0.107E-12   -.867E-17 0.867E-18 0.867E-18   -.241E-12 -.527E-12 0.639E-12
   0.474E-10 0.502E-10 0.483E-10   0.639E-13 0.497E-13 0.107E-12   -.347E-17 -.781E-17 0.000E+00   -.281E-12 -.328E-12 0.627E-12
   0.474E-10 0.483E-10 0.505E-10   0.568E-13 0.355E-13 0.121E-12   -.173E-17 0.147E-16 0.867E-18   -.256E-12 -.397E-12 0.435E-12
   0.497E-10 0.583E-10 0.585E-10   0.995E-13 0.355E-13 0.121E-12   -.694E-17 -.781E-17 0.000E+00   -.244E-12 -.326E-12 0.455E-12
   0.359E-13 -.228E-12 -.200E-12   0.208E-13 0.139E-13 -.430E-13   -.651E-18 -.152E-17 -.434E-18   0.560E-14 -.182E-13 -.125E-13
   0.296E-13 -.206E-11 -.140E-11   0.217E-13 0.139E-13 -.281E-13   -.651E-18 -.651E-18 0.434E-18   0.539E-14 -.165E-13 0.210E-13
   0.344E-13 0.191E-12 0.204E-12   0.210E-13 0.146E-13 -.281E-13   0.434E-18 0.217E-18 0.651E-18   0.682E-14 -.108E-13 0.208E-13
   0.314E-13 -.141E-11 -.204E-11   0.219E-13 0.146E-13 -.427E-13   -.304E-17 -.152E-17 0.651E-18   0.398E-14 -.152E-13 -.129E-13
 -----------------------------------------------------------------------------------------------
   0.321E-09 0.324E-09 0.323E-09   -.154E-13 -.424E-13 -.374E-13   -.256E-16 -.173E-16 0.434E-18   -.506E-12 -.947E-12 -.482E-13
 
 
 POSITION                                       TOTAL-FORCE (eV/Angst)
 -----------------------------------------------------------------------------------
      2.98934      0.00000      2.98879        -0.000000     -0.000000     -0.000000
      0.00000      2.98934      2.98879        -0.000000      0.000000      0.000000
      2.98934      2.98934      0.00000         0.000000      0.000000      0.000000
      0.00000      0.00000      0.00000         0.000000      0.000000      0.000000
      1.49467      1.49467      4.48319        -0.000000     -0.000000      0.000000
      1.49467      4.48401      1.49440         0.000000      0.000000     -0.000000
      4.48401      1.49467      1.49440         0.000000     -0.000000     -0.000000
      4.48401      4.48401      4.48319        -0.000000      0.000000      0.000000
      2.98934      0.00000      0.00000         0.000000      0.000000     -0.000000
      0.00000      2.98934      0.00000         0.000000      0.000000     -0.000000
      0.00000      0.00000      2.98879         0.000000     -0.000000     -0.000000
      2.98934      2.98934      2.98879         0.000000     -0.000000     -0.000000
      1.49467      1.49467      1.49440        -0.000000     -0.000000     -0.000000
      4.48401      1.49467      4.48319        -0.000000     -0.000000     -0.000000
      1.49467      4.48401      4.48319        -0.000000     -0.000000     -0.000000
      4.48401      4.48401      1.49440        -0.000000     -0.000000     -0.000000
 -----------------------------------------------------------------------------------
    total drift:                                0.000000      0.000000      0.000000


--------------------------------------------------------------------------------------------------------



  FREE ENERGIE OF THE ION-ELECTRON SYSTEM (eV)
  ---------------------------------------------------
  free  energy   TOTEN  =      -109.09652422 eV

  energy  without entropy=     -109.09596459  energy(sigma->0) =     -109.09633767
 


--------------------------------------------------------------------------------------------------------


    POTLOK:  cpu time    0.3240: real time    0.3248


--------------------------------------------------------------------------------------------------------


     LOOP+:  cpu time  299.8507: real time  301.1923
    4ORBIT:  cpu time    0.0000: real time    0.0000
 


 total charge     
 
# of ion       s       p       d       tot
------------------------------------------
    1        0.310   6.305   6.243  12.858
    2        0.310   6.305   6.243  12.858
    3        0.310   6.305   6.243  12.858
    4        0.310   6.305   6.243  12.858
    5        0.335   6.312   6.015  12.662
    6        0.335   6.312   6.015  12.662
    7        0.335   6.312   6.015  12.662
    8        0.335   6.312   6.015  12.662
    9        0.396   6.420   7.425  14.241
   10        0.396   6.420   7.425  14.241
   11        0.396   6.420   7.425  14.241
   12        0.396   6.420   7.425  14.241
   13        1.309   2.063   0.369   3.740
   14        1.309   2.063   0.369   3.740
   15        1.309   2.063   0.369   3.740
   16        1.309   2.063   0.369   3.740
--------------------------------------------------
tot          9.400  84.397  80.207 174.004
 


 magnetization (x)
 
# of ion       s       p       d       tot
------------------------------------------
    1        0.005  -0.007   1.843   1.841
    2        0.005  -0.007   1.843   1.841
    3        0.005  -0.007   1.843   1.841
    4        0.005  -0.007   1.843   1.841
    5        0.003  -0.007   2.752   2.748
    6        0.003  -0.007   2.752   2.748
    7        0.003  -0.007   2.752   2.748
    8        0.003  -0.007   2.752   2.748
    9       -0.009  -0.031   1.110   1.069
   10       -0.009  -0.031   1.110   1.069
   11       -0.009  -0.031   1.110   1.069
   12       -0.009  -0.031   1.110   1.069
   13       -0.001  -0.087  -0.029  -0.117
   14       -0.001  -0.087  -0.029  -0.117
   15       -0.001  -0.087  -0.029  -0.117
   16       -0.001  -0.087  -0.029  -0.117
--------------------------------------------------
tot         -0.010  -0.532  22.707  22.165
 

 total amount of memory used by VASP MPI-rank0    54942. kBytes
=======================================================================

   base      :      30000. kBytes
   nonlr-proj:       4727. kBytes
   fftplans  :       4343. kBytes
   grid      :       3686. kBytes
   one-center:         62. kBytes
   wavefun   :      12124. kBytes
 
  
  
 General timing and accounting informations for this job:
 ========================================================
  
                  Total CPU time used (sec):      312.548
                            User time (sec):      310.543
                          System time (sec):        2.004
                         Elapsed time (sec):      315.172
  
                   Maximum memory used (kb):     1095732.
                   Average memory used (kb):           0.
  
                          Minor page faults:       489520
                          Major page faults:            0
                 Voluntary context switches:         4640
