 vasp.6.1.1 19Jun20 (build Jan 21 2021 08:43:03) complex                        
  
 executed on             LinuxIFC date 2023.04.01  04:03:16
 running on   80 total cores
 distrk:  each k-point on   80 cores,    1 groups
 distr:  one band on NCORE=  10 cores,    8 groups


--------------------------------------------------------------------------------------------------------


 INCAR:
 POTCAR:    PAW_PBE Fe_pv 02Aug2007               
 POTCAR:    PAW_PBE Co_pv 23Apr2009               
 POTCAR:       PAW_PBE Si 05Jan2001               
 POTCAR:    PAW_PBE Fe_pv 02Aug2007               
   VRHFIN =Fe:  3pd7s1                                                                              
   LEXCH  = PE                                                                                      
   EATOM  =  2457.4239 eV,  180.6156 Ry                                                             
                                                                                                    
   TITEL  = PAW_PBE Fe_pv 02Aug2007                                                                 
   LULTRA =        F    use ultrasoft PP ?                                                          
   IUNSCR =        1    unscreen: 0-lin 1-nonlin 2-no                                               
   RPACOR =    1.750    partial core radius                                                         
   POMASS =   55.847; ZVAL   =   14.000    mass and valenz                                          
   RCORE  =    2.200    outmost cutoff radius                                                       
   RWIGS  =    2.200; RWIGS  =    1.164    wigner-seitz radius (au A)                               
   ENMAX  =  293.238; ENMIN  =  219.928 eV                                                          
   ICORE  =        3    local potential                                                             
   LCOR   =        T    correct aug charges                                                         
   LPAW   =        T    paw PP                                                                      
   EAUG   =  578.342                                                                                
   DEXC   =    0.000                                                                                
   RMAX   =    2.249    core radius for proj-oper                                                   
   RAUG   =    1.300    factor for augmentation sphere                                              
   RDEP   =    2.296    radius for radial grids                                                     
   RDEPT  =    1.766    core radius for aug-charge                                                  
                                                                                                    
   Atomic configuration                                                                             
    8 entries                                                                                       
     n  l   j            E        occ.                                                              
     1  0  0.50     -6993.8440   2.0000                                                             
     2  0  0.50      -814.6047   2.0000                                                             
     2  1  1.50      -693.3689   6.0000                                                             
     3  0  0.50       -89.4732   2.0000                                                             
     3  1  1.50       -55.6373   6.0000                                                             
     3  2  2.50        -3.8151   7.0000                                                             
     4  0  0.50        -4.2551   1.0000                                                             
     4  3  2.50        -1.3606   0.0000                                                             
   Description                                                                                      
     l       E           TYP  RCUT    TYP  RCUT                                                     
     1    -55.6372668     23  2.000                                                                 
     1     -5.4423304     23  2.000                                                                 
     2     -3.8151096     23  2.200                                                                 
     2     -5.1756922     23  2.200                                                                 
     0     -4.2550951     23  2.200                                                                 
     0     27.2116520     23  2.200                                                                 
     3     -1.3605826     23  2.200                                                                 
  local pseudopotential read in
  partial core-charges read in
  partial kinetic energy density read in
  atomic valenz-charges read in
  non local Contribution for L=           1  read in
    real space projection operators read in
  non local Contribution for L=           1  read in
    real space projection operators read in
  non local Contribution for L=           2  read in
    real space projection operators read in
  non local Contribution for L=           2  read in
    real space projection operators read in
  non local Contribution for L=           0  read in
    real space projection operators read in
  non local Contribution for L=           0  read in
    real space projection operators read in
    PAW grid and wavefunctions read in
 
   number of l-projection  operators is LMAX  =           6
   number of lm-projection operators is LMMAX =          18
 
 POTCAR:    PAW_PBE Co_pv 23Apr2009               
   VRHFIN =Co: 3pd7s1                                                                               
   LEXCH  = PE                                                                                      
   EATOM  =  2948.1334 eV,  216.6817 Ry                                                             
                                                                                                    
   TITEL  = PAW_PBE Co_pv 23Apr2009                                                                 
   LULTRA =        F    use ultrasoft PP ?                                                          
   IUNSCR =        1    unscreen: 0-lin 1-nonlin 2-no                                               
   RPACOR =    2.000    partial core radius                                                         
   POMASS =   58.933; ZVAL   =   15.000    mass and valenz                                          
   RCORE  =    2.300    outmost cutoff radius                                                       
   RWIGS  =    2.460; RWIGS  =    1.302    wigner-seitz radius (au A)                               
   ENMAX  =  271.042; ENMIN  =  203.281 eV                                                          
   ICORE  =        3    local potential                                                             
   LCOR   =        T    correct aug charges                                                         
   LPAW   =        T    paw PP                                                                      
   EAUG   =  543.066                                                                                
   DEXC   =    0.000                                                                                
   RMAX   =    2.360    core radius for proj-oper                                                   
   RAUG   =    1.300    factor for augmentation sphere                                              
   RDEP   =    2.393    radius for radial grids                                                     
   RDEPT  =    1.841    core radius for aug-charge                                                  
                                                                                                    
   Atomic configuration                                                                             
    8 entries                                                                                       
     n  l   j            E        occ.                                                              
     1  0  0.50     -7587.6674   2.0000                                                             
     2  0  0.50      -893.6084   2.0000                                                             
     2  1  1.50      -764.5805   6.0000                                                             
     3  0  0.50       -97.5973   2.0000                                                             
     3  1  1.50       -60.9648   6.0000                                                             
     3  2  2.50        -4.2382   8.0000                                                             
     4  0  0.50        -4.3746   1.0000                                                             
     4  3  2.50        -1.3606   0.0000                                                             
   Description                                                                                      
     l       E           TYP  RCUT    TYP  RCUT                                                     
     1    -60.9647990     23  2.000                                                                 
     1     -5.4423304     23  2.000                                                                 
     2     -4.2382362     23  2.300                                                                 
     2     -5.5988188     23  2.300                                                                 
     0     -4.3745797     23  2.300                                                                 
     0      5.7660125     23  2.300                                                                 
     3     -1.3605826     23  2.300                                                                 
  local pseudopotential read in
  partial core-charges read in
  partial kinetic energy density read in
  atomic valenz-charges read in
  non local Contribution for L=           1  read in
    real space projection operators read in
  non local Contribution for L=           1  read in
    real space projection operators read in
  non local Contribution for L=           2  read in
    real space projection operators read in
  non local Contribution for L=           2  read in
    real space projection operators read in
  non local Contribution for L=           0  read in
    real space projection operators read in
  non local Contribution for L=           0  read in
    real space projection operators read in
    PAW grid and wavefunctions read in
 
   number of l-projection  operators is LMAX  =           6
   number of lm-projection operators is LMMAX =          18
 
 POTCAR:       PAW_PBE Si 05Jan2001               
   VRHFIN =Si: s2p2                                                                                 
   LEXCH  = PE                                                                                      
   EATOM  =   103.0669 eV,    7.5752 Ry                                                             
                                                                                                    
   TITEL  = PAW_PBE Si 05Jan2001                                                                    
   LULTRA =        F    use ultrasoft PP ?                                                          
   IUNSCR =        1    unscreen: 0-lin 1-nonlin 2-no                                               
   RPACOR =    1.500    partial core radius                                                         
   POMASS =   28.085; ZVAL   =    4.000    mass and valenz                                          
   RCORE  =    1.900    outmost cutoff radius                                                       
   RWIGS  =    2.480; RWIGS  =    1.312    wigner-seitz radius (au A)                               
   ENMAX  =  245.345; ENMIN  =  184.009 eV                                                          
   ICORE  =        2    local potential                                                             
   LCOR   =        T    correct aug charges                                                         
   LPAW   =        T    paw PP                                                                      
   EAUG   =  322.069                                                                                
   DEXC   =    0.000                                                                                
   RMAX   =    1.950    core radius for proj-oper                                                   
   RAUG   =    1.300    factor for augmentation sphere                                              
   RDEP   =    1.993    radius for radial grids                                                     
   RDEPT  =    1.837    core radius for aug-charge                                                  
                                                                                                    
   Atomic configuration                                                                             
    6 entries                                                                                       
     n  l   j            E        occ.                                                              
     1  0  0.50     -1785.8828   2.0000                                                             
     2  0  0.50      -139.4969   2.0000                                                             
     2  1  1.50       -95.5546   6.0000                                                             
     3  0  0.50       -10.8127   2.0000                                                             
     3  1  0.50        -4.0811   2.0000                                                             
     3  2  1.50        -4.0817   0.0000                                                             
   Description                                                                                      
     l       E           TYP  RCUT    TYP  RCUT                                                     
     0    -10.8127223     23  1.900                                                                 
     0     -7.6451159     23  1.900                                                                 
     1     -4.0811372     23  1.900                                                                 
     1      2.4879257     23  1.900                                                                 
     2     -4.0817478      7  1.900                                                                 
  local pseudopotential read in
  partial core-charges read in
  partial kinetic energy density read in
  atomic valenz-charges read in
  non local Contribution for L=           0  read in
    real space projection operators read in
  non local Contribution for L=           0  read in
    real space projection operators read in
  non local Contribution for L=           1  read in
    real space projection operators read in
  non local Contribution for L=           1  read in
    real space projection operators read in
    PAW grid and wavefunctions read in
 
   number of l-projection  operators is LMAX  =           4
   number of lm-projection operators is LMMAX =           8
 
 Optimization of the real space projectors (new method)

 maximal supplied QI-value         = 17.01
 optimisation between [QCUT,QGAM] = [ 11.40, 22.79] = [ 36.36,145.44] Ry 
 Optimized for a Real-space Cutoff    1.47 Angstroem

   l    n(q)    QCUT    max X(q) W(low)/X(q) W(high)/X(q)  e(spline) 
   1     10    11.395     4.267    0.90E-04    0.11E-03    0.18E-06
   1     10    11.395     5.750    0.14E-03    0.15E-03    0.25E-06
   2      9    11.395    53.656    0.13E-03    0.36E-04    0.15E-06
   2      9    11.395    49.521    0.14E-03    0.36E-04    0.15E-06
   0     10    11.395    31.246    0.58E-04    0.17E-05    0.98E-07
   0     10    11.395    12.201    0.41E-04    0.11E-05    0.82E-07
 Optimization of the real space projectors (new method)

 maximal supplied QI-value         = 16.25
 optimisation between [QCUT,QGAM] = [ 11.38, 22.75] = [ 36.24,144.96] Ry 
 Optimized for a Real-space Cutoff    1.47 Angstroem

   l    n(q)    QCUT    max X(q) W(low)/X(q) W(high)/X(q)  e(spline) 
   1     10    11.376     4.946    0.88E-04    0.16E-03    0.15E-06
   1     10    11.376     5.991    0.13E-03    0.24E-03    0.21E-06
   2      9    11.376    46.947    0.87E-04    0.91E-04    0.20E-06
   2      9    11.376    42.928    0.91E-04    0.94E-04    0.20E-06
   0     10    11.376    68.324    0.58E-04    0.21E-04    0.82E-07
   0     10    11.376    36.926    0.52E-04    0.19E-04    0.78E-07
 Optimization of the real space projectors (new method)

 maximal supplied QI-value         = 19.84
 optimisation between [QCUT,QGAM] = [ 11.31, 22.82] = [ 35.82,145.81] Ry 
 Optimized for a Real-space Cutoff    1.20 Angstroem

   l    n(q)    QCUT    max X(q) W(low)/X(q) W(high)/X(q)  e(spline) 
   0      8    11.310   159.560    0.13E-03    0.16E-03    0.42E-07
   0      8    11.310   115.863    0.12E-03    0.16E-03    0.41E-07
   1      8    11.310    88.339    0.16E-03    0.14E-03    0.80E-07
   1      8    11.310    48.592    0.16E-03    0.14E-03    0.78E-07
  PAW_PBE Fe_pv 02Aug2007               :
 energy of atom  1       EATOM=-2457.4239
 kinetic energy error for atom=    0.0069 (will be added to EATOM!!)
  PAW_PBE Co_pv 23Apr2009               :
 energy of atom  2       EATOM=-2948.1334
 kinetic energy error for atom=    0.0060 (will be added to EATOM!!)
     PAW_PBE Si 05Jan2001               :
 energy of atom  3       EATOM= -103.0669
 kinetic energy error for atom=    0.0006 (will be added to EATOM!!)
 
 
 POSCAR: Heusler tetragonSi
  positions in direct lattice
  velocities in cartesian coordinates
 exchange correlation table for  LEXCH =        8
   RHO(1)=    0.500       N(1)  =     2000
   RHO(2)=  100.500       N(2)  =     4000
 


--------------------------------------------------------------------------------------------------------


 ion  position               nearest neighbor table
   1  0.000  0.500  0.500-   5 2.41   6 2.41   7 2.41   8 2.41  13 2.43  14 2.43  15 2.43  16 2.43
                             2 2.79   3 2.79   2 2.79   3 2.79
   2  0.000  0.000  0.500-   5 2.41   6 2.41   7 2.41   8 2.41  13 2.43  14 2.43  15 2.43  16 2.43
                             1 2.79   4 2.79   1 2.79   4 2.79
   3  0.500  0.500  0.500-   5 2.41   6 2.41   7 2.41   8 2.41  13 2.43  14 2.43  15 2.43  16 2.43
                             1 2.79   4 2.79   4 2.79   1 2.79
   4  0.500  0.000  0.500-   5 2.41   6 2.41   7 2.41   8 2.41  13 2.43  14 2.43  15 2.43  16 2.43
                             2 2.79   3 2.79   3 2.79   2 2.79
   5  0.250  0.750  0.255-   1 2.41   2 2.41   3 2.41   4 2.41   9 2.44  10 2.44  11 2.44  12 2.44
                            13 2.79  15 2.79  13 2.79  15 2.79
   6  0.750  0.250  0.255-   1 2.41   2 2.41   3 2.41   4 2.41   9 2.44  10 2.44  11 2.44  12 2.44
                            13 2.79  15 2.79  15 2.79  13 2.79
   7  0.250  0.250  0.745-   1 2.41   2 2.41   3 2.41   4 2.41   9 2.44  10 2.44  11 2.44  12 2.44
                            14 2.79  16 2.79  14 2.79  16 2.79
   8  0.750  0.750  0.745-   1 2.41   2 2.41   3 2.41   4 2.41   9 2.44  10 2.44  11 2.44  12 2.44
                            14 2.79  16 2.79  16 2.79  14 2.79
   9  0.500  0.500  0.000-  13 2.42  14 2.42  15 2.42  16 2.42   5 2.44   6 2.44   7 2.44   8 2.44
                            11 2.79  12 2.79  11 2.79  12 2.79
  10  0.000  0.000  0.000-  13 2.42  14 2.42  15 2.42  16 2.42   5 2.44   6 2.44   7 2.44   8 2.44
                            11 2.79  12 2.79  12 2.79  11 2.79
  11  0.500  0.000  0.000-  13 2.42  14 2.42  15 2.42  16 2.42   5 2.44   6 2.44   7 2.44   8 2.44
                             9 2.79  10 2.79   9 2.79  10 2.79
  12  0.000  0.500  0.000-  13 2.42  14 2.42  15 2.42  16 2.42   5 2.44   6 2.44   7 2.44   8 2.44
                             9 2.79  10 2.79  10 2.79   9 2.79
  13  0.250  0.250  0.249-   9 2.42  10 2.42  11 2.42  12 2.42   1 2.43   2 2.43   3 2.43   4 2.43
                             5 2.79   6 2.79   5 2.79   6 2.79
  14  0.250  0.750  0.751-   9 2.42  10 2.42  11 2.42  12 2.42   1 2.43   2 2.43   3 2.43   4 2.43
                             7 2.79   8 2.79   7 2.79   8 2.79
  15  0.750  0.750  0.249-   9 2.42  10 2.42  11 2.42  12 2.42   1 2.43   2 2.43   3 2.43   4 2.43
                             5 2.79   6 2.79   6 2.79   5 2.79
  16  0.750  0.250  0.751-   9 2.42  10 2.42  11 2.42  12 2.42   1 2.43   2 2.43   3 2.43   4 2.43
                             7 2.79   8 2.79   8 2.79   7 2.79
 
  LATTYP: Found a simple tetragonal cell.
 ALAT       =     5.5824898866
 C/A-ratio  =     1.0100720865
  
  Lattice vectors:
  
 A1 = (   5.5824898866,   0.0000000000,   0.0000000000)
 A2 = (   0.0000000000,   5.5824898866,   0.0000000000)
 A3 = (   0.0000000000,   0.0000000000,   5.6387172076)


Analysis of symmetry for initial positions (statically):
=====================================================================
 Subroutine PRICEL returns following result:
 
  LATTYP: Found a simple tetragonal cell.
 ALAT       =     3.9474164547
 C/A-ratio  =     1.4284576437
  
  Lattice vectors:
  
 A1 = (   2.7912449433,  -2.7912449433,   0.0000000000)
 A2 = (  -2.7912449433,  -2.7912449433,   0.0000000000)
 A3 = (   0.0000000000,   0.0000000000,  -5.6387172076)
 
   2 primitive cells build up your supercell.
 

 Routine SETGRP: Setting up the symmetry group for a 
 simple tetragonal supercell.


 Subroutine GETGRP returns: Found 16 space group operations
 (whereof  8 operations were pure point group operations)
 out of a pool of 16 trial point group operations.


The static configuration has the point symmetry D_2d.
 The point group associated with its full space group is D_4h.


Analysis of symmetry for dynamics (positions and initial velocities):
=====================================================================
 Subroutine PRICEL returns following result:
 
  LATTYP: Found a simple tetragonal cell.
 ALAT       =     3.9474164547
 C/A-ratio  =     1.4284576437
  
  Lattice vectors:
  
 A1 = (   2.7912449433,  -2.7912449433,   0.0000000000)
 A2 = (  -2.7912449433,  -2.7912449433,   0.0000000000)
 A3 = (   0.0000000000,   0.0000000000,  -5.6387172076)
 
   2 primitive cells build up your supercell.
 

 Routine SETGRP: Setting up the symmetry group for a 
 simple tetragonal supercell.


 Subroutine GETGRP returns: Found 16 space group operations
 (whereof  8 operations were pure point group operations)
 out of a pool of 16 trial point group operations.


The dynamic configuration has the point symmetry D_2d.
 The point group associated with its full space group is D_4h.


Analysis of structural, dynamic, and magnetic symmetry:
=====================================================================
 Subroutine PRICEL returns following result:
 
  LATTYP: Found a simple tetragonal cell.
 ALAT       =     3.9474164547
 C/A-ratio  =     1.4284576437
  
  Lattice vectors:
  
 A1 = (   2.7912449433,  -2.7912449433,   0.0000000000)
 A2 = (  -2.7912449433,  -2.7912449433,   0.0000000000)
 A3 = (   0.0000000000,   0.0000000000,  -5.6387172076)
 
   2 primitive cells build up your supercell.
 

 Routine SETGRP: Setting up the symmetry group for a 
 simple tetragonal supercell.


 Subroutine GETGRP returns: Found 16 space group operations
 (whereof  8 operations were pure point group operations)
 out of a pool of 16 trial point group operations.


The magnetic configuration has the point symmetry D_2d.
 The point group associated with its full space group is D_4h.


 Subroutine INISYM returns: Found 16 space group operations
 (whereof  8 operations are pure point group operations),
 and found     2 'primitive' translations


----------------------------------------------------------------------------------------

                                     Primitive cell                                     

  volume of cell :      87.8630

  direct lattice vectors                    reciprocal lattice vectors
     2.791244943 -2.791244943  0.000000000     0.179131538 -0.179131538  0.000000000
    -2.791244943 -2.791244943  0.000000000    -0.179131538 -0.179131538  0.000000000
     0.000000000  0.000000000 -5.638717208     0.000000000  0.000000000 -0.177345301

  length of vectors
     3.947416455  3.947416455  5.638717208     0.253330251  0.253330251  0.177345301

  position of ions in fractional coordinates (direct lattice)
     0.500000000  0.500000000  0.500000000
     0.000000000  0.000000000  0.500000000
     0.500000000  0.000000000  0.745179415
     0.000000000  0.500000000  0.254820585
     0.000000000  0.000000000  0.000000000
     0.500000000  0.500000000  0.000000000
     0.000000000  0.500000000  0.751427667
     0.500000000  0.000000000  0.248572333

  ion indices of the primitive-cell ions
   primitive index   ion index
                 1           1
                 2           2
                 3           5
                 4           7
                 5           9
                 6          12
                 7          13
                 8          14

----------------------------------------------------------------------------------------

 
 
 KPOINTS: Ni7CoMn5CrSn2                           

Automatic generation of k-mesh.
Space group operators:
 irot       det(A)        alpha          n_x          n_y          n_z        tau_x        tau_y        tau_z
    1     1.000000     0.000000     1.000000     0.000000     0.000000     0.000000     0.000000     0.000000
    2    -1.000000    90.000000     0.000000     0.000000    -1.000000     0.000000     0.000000     0.000000
    3     1.000000   180.000000     0.000000     0.000000     1.000000     0.000000     0.000000     0.000000
    4    -1.000000    90.000000     0.000000     0.000000     1.000000     0.000000     0.000000     0.000000
    5     1.000000   180.000000     0.000000     1.000000     0.000000     0.000000     0.000000     0.000000
    6    -1.000000   180.000000     0.707107     0.707107     0.000000     0.000000     0.000000     0.000000
    7     1.000000   180.000000     1.000000     0.000000     0.000000     0.000000     0.000000     0.000000
    8    -1.000000   180.000000     0.707107    -0.707107     0.000000     0.000000     0.000000     0.000000
    9    -1.000000     0.000000     1.000000     0.000000     0.000000     0.000000     0.500000     0.000000
   10     1.000000    90.000000     0.000000     0.000000    -1.000000     0.000000     0.500000     0.000000
   11    -1.000000   180.000000     0.000000     0.000000     1.000000     0.000000     0.500000     0.000000
   12     1.000000    90.000000     0.000000     0.000000     1.000000     0.000000     0.500000     0.000000
   13    -1.000000   180.000000     0.000000     1.000000     0.000000     0.000000     0.500000     0.000000
   14     1.000000   180.000000     0.707107     0.707107     0.000000     0.000000     0.500000     0.000000
   15    -1.000000   180.000000     1.000000     0.000000     0.000000     0.000000     0.500000     0.000000
   16     1.000000   180.000000     0.707107    -0.707107     0.000000     0.000000     0.500000     0.000000
 
 Subroutine IBZKPT returns following result:
 ===========================================
 
 Found     40 irreducible k-points:
 
 Following reciprocal coordinates:
            Coordinates               Weight
  0.062500  0.062500  0.062500      8.000000
  0.187500  0.062500  0.062500     16.000000
  0.312500  0.062500  0.062500     16.000000
  0.437500  0.062500  0.062500     16.000000
  0.187500  0.187500  0.062500      8.000000
  0.312500  0.187500  0.062500     16.000000
  0.437500  0.187500  0.062500     16.000000
  0.312500  0.312500  0.062500      8.000000
  0.437500  0.312500  0.062500     16.000000
  0.437500  0.437500  0.062500      8.000000
  0.062500  0.062500  0.187500      8.000000
  0.187500  0.062500  0.187500     16.000000
  0.312500  0.062500  0.187500     16.000000
  0.437500  0.062500  0.187500     16.000000
  0.187500  0.187500  0.187500      8.000000
  0.312500  0.187500  0.187500     16.000000
  0.437500  0.187500  0.187500     16.000000
  0.312500  0.312500  0.187500      8.000000
  0.437500  0.312500  0.187500     16.000000
  0.437500  0.437500  0.187500      8.000000
  0.062500  0.062500  0.312500      8.000000
  0.187500  0.062500  0.312500     16.000000
  0.312500  0.062500  0.312500     16.000000
  0.437500  0.062500  0.312500     16.000000
  0.187500  0.187500  0.312500      8.000000
  0.312500  0.187500  0.312500     16.000000
  0.437500  0.187500  0.312500     16.000000
  0.312500  0.312500  0.312500      8.000000
  0.437500  0.312500  0.312500     16.000000
  0.437500  0.437500  0.312500      8.000000
  0.062500  0.062500  0.437500      8.000000
  0.187500  0.062500  0.437500     16.000000
  0.312500  0.062500  0.437500     16.000000
  0.437500  0.062500  0.437500     16.000000
  0.187500  0.187500  0.437500      8.000000
  0.312500  0.187500  0.437500     16.000000
  0.437500  0.187500  0.437500     16.000000
  0.312500  0.312500  0.437500      8.000000
  0.437500  0.312500  0.437500     16.000000
  0.437500  0.437500  0.437500      8.000000
 
 Following cartesian coordinates:
            Coordinates               Weight
  0.064935  0.064935  0.064288      8.000000
  0.194806  0.064935  0.064288     16.000000
  0.324676  0.064935  0.064288     16.000000
  0.454546  0.064935  0.064288     16.000000
  0.194806  0.194806  0.064288      8.000000
  0.324676  0.194806  0.064288     16.000000
  0.454546  0.194806  0.064288     16.000000
  0.324676  0.324676  0.064288      8.000000
  0.454546  0.324676  0.064288     16.000000
  0.454546  0.454546  0.064288      8.000000
  0.064935  0.064935  0.192863      8.000000
  0.194806  0.064935  0.192863     16.000000
  0.324676  0.064935  0.192863     16.000000
  0.454546  0.064935  0.192863     16.000000
  0.194806  0.194806  0.192863      8.000000
  0.324676  0.194806  0.192863     16.000000
  0.454546  0.194806  0.192863     16.000000
  0.324676  0.324676  0.192863      8.000000
  0.454546  0.324676  0.192863     16.000000
  0.454546  0.454546  0.192863      8.000000
  0.064935  0.064935  0.321438      8.000000
  0.194806  0.064935  0.321438     16.000000
  0.324676  0.064935  0.321438     16.000000
  0.454546  0.064935  0.321438     16.000000
  0.194806  0.194806  0.321438      8.000000
  0.324676  0.194806  0.321438     16.000000
  0.454546  0.194806  0.321438     16.000000
  0.324676  0.324676  0.321438      8.000000
  0.454546  0.324676  0.321438     16.000000
  0.454546  0.454546  0.321438      8.000000
  0.064935  0.064935  0.450014      8.000000
  0.194806  0.064935  0.450014     16.000000
  0.324676  0.064935  0.450014     16.000000
  0.454546  0.064935  0.450014     16.000000
  0.194806  0.194806  0.450014      8.000000
  0.324676  0.194806  0.450014     16.000000
  0.454546  0.194806  0.450014     16.000000
  0.324676  0.324676  0.450014      8.000000
  0.454546  0.324676  0.450014     16.000000
  0.454546  0.454546  0.450014      8.000000
 


--------------------------------------------------------------------------------------------------------




 Dimension of arrays:
   k-points           NKPTS =     40   k-points in BZ     NKDIM =     40   number of bands    NBANDS=    128
   number of dos      NEDOS =   1500   number of ions     NIONS =     16
   non local maximal  LDIM  =      6   non local SUM 2l+1 LMDIM =     18
   total plane-waves  NPLWV =  74088
   max r-space proj   IRMAX =   5710   max aug-charges    IRDMAX= 112959
   dimension x,y,z NGX =    42 NGY =   42 NGZ =   42
   dimension x,y,z NGXF=    84 NGYF=   84 NGZF=   84
   support grid    NGXF=   168 NGYF=  168 NGZF=  168
   ions per type =               8   4   4
   NGX,Y,Z   is equivalent  to a cutoff of  12.51, 12.51, 12.38 a.u.
   NGXF,Y,Z  is equivalent  to a cutoff of  25.02, 25.02, 24.77 a.u.

 SYSTEM =  NiCoMnGa                                
 POSCAR =  Heusler tetragonSi                      

 Startparameter for this run:
   NWRITE =      2    write-flag & timer
   PREC   = accura    normal or accurate (medium, high low for compatibility)
   ISTART =      0    job   : 0-new  1-cont  2-samecut
   ICHARG =      2    charge: 1-file 2-atom 10-const
   ISPIN  =      2    spin polarized calculation?
   LNONCOLLINEAR =      F non collinear calculations
   LSORBIT =      F    spin-orbit coupling
   INIWAV =      1    electr: 0-lowe 1-rand  2-diag
   LASPH  =      F    aspherical Exc in radial PAW
   METAGGA=      F    non-selfconsistent MetaGGA calc.

 Electronic Relaxation 1
   ENCUT  =  500.0 eV  36.75 Ry    6.06 a.u.  10.18 10.18 10.28*2*pi/ulx,y,z
   ENINI  =  500.0     initial cutoff
   ENAUG  =  578.3 eV  augmentation charge cutoff
   NELM   =    160;   NELMIN=  2; NELMDL= -6     # of ELM steps 
   EDIFF  = 0.1E-05   stopping-criterion for ELM
   LREAL  =      T    real-space projection
   NLSPLINE    = F    spline interpolate recip. space projectors
   LCOMPAT=      F    compatible to vasp.4.4
   GGA_COMPAT  = T    GGA compatible to vasp.4.4-vasp.4.6
   LMAXPAW     = -100 max onsite density
   LMAXMIX     =    6 max onsite mixed and CHGCAR
   VOSKOWN=      0    Vosko Wilk Nusair interpolation
   ROPT   =   -0.00025  -0.00025  -0.00025
 Ionic relaxation
   EDIFFG = 0.1E-02   stopping-criterion for IOM
   NSW    =      0    number of steps for IOM
   NBLOCK =      1;   KBLOCK =      1    inner block; outer block 
   IBRION =     -1    ionic relax: 0-MD 1-quasi-New 2-CG
   NFREE  =      1    steps in history (QN), initial steepest desc. (CG)
   ISIF   =      3    stress and relaxation
   IWAVPR =     10    prediction:  0-non 1-charg 2-wave 3-comb
   ISYM   =      2    0-nonsym 1-usesym 2-fastsym
   LCORR  =      T    Harris-Foulkes like correction to forces

   POTIM  = 0.0050    time-step for ionic-motion
   TEIN   =    0.0    initial temperature
   TEBEG  =    0.0;   TEEND  =   0.0 temperature during run
   SMASS  =  -3.00    Nose mass-parameter (am)
   estimated Nose-frequenzy (Omega)   =  0.10E-29 period in steps = 0.13E+49 mass=  -0.712E-27a.u.
   SCALEE = 1.0000    scale energy and forces
   NPACO  =    256;   APACO  = 16.0  distance and # of slots for P.C.
   PSTRESS=    0.0 pullay stress

  Mass of Ions in am
   POMASS =  55.85 58.93 28.09
  Ionic Valenz
   ZVAL   =  14.00 15.00  4.00
  Atomic Wigner-Seitz radii
   RWIGS  =   1.16  1.16  1.16
  virtual crystal weights 
   VCA    =   1.00  1.00  1.00
   NELECT =     188.0000    total number of electrons
   NUPDOWN=      -1.0000    fix difference up-down

 DOS related values:
   EMIN   =  10.00;   EMAX   =-10.00  energy-range for DOS
   EFERMI =   0.00
   ISMEAR =     1;   SIGMA  =   0.10  broadening in eV -4-tet -1-fermi 0-gaus

 Electronic relaxation 2 (details)
   IALGO  =     38    algorithm
   LDIAG  =      T    sub-space diagonalisation (order eigenvalues)
   LSUBROT=      F    optimize rotation matrix (better conditioning)
   TURBO    =      0    0=normal 1=particle mesh
   IRESTART =      0    0=no restart 2=restart with 2 vectors
   NREBOOT  =      0    no. of reboots
   NMIN     =      0    reboot dimension
   EREF     =   0.00    reference energy to select bands
   IMIX   =      4    mixing-type and parameters
     AMIX     =   0.18;   BMIX     =  0.00
     AMIX_MAG =   0.26;   BMIX_MAG =  0.01
     AMIN     =   0.10
     WC   =   100.;   INIMIX=   1;  MIXPRE=   1;  MAXMIX= -45

 Intra band minimization:
   WEIMIN = 0.0000     energy-eigenvalue tresh-hold
   EBREAK =  0.20E-08  absolut break condition
   DEPER  =   0.30     relativ break condition  

   TIME   =   0.40     timestep for ELM

  volume/ion in A,a.u.               =      10.98        74.12
  Fermi-wavevector in a.u.,A,eV,Ry     =   1.674360  3.164081 38.143658  2.803480
  Thomas-Fermi vector in A             =   2.759169
 
 Write flags
   LWAVE        =      F    write WAVECAR
   LDOWNSAMPLE  =      F    k-point downsampling of WAVECAR
   LCHARG       =      T    write CHGCAR
   LVTOT        =      F    write LOCPOT, total local potential
   LVHAR        =      F    write LOCPOT, Hartree potential only
   LELF         =      F    write electronic localiz. function (ELF)
   LORBIT       =     10    0 simple, 1 ext, 2 COOP (PROOUT), +10 PAW based schemes


 Dipole corrections
   LMONO  =      F    monopole corrections only (constant potential shift)
   LDIPOL =      F    correct potential (dipole corrections)
   IDIPOL =      0    1-x, 2-y, 3-z, 4-all directions 
   EPSILON=  1.0000000 bulk dielectric constant

 Exchange correlation treatment:
   GGA     =    --    GGA type
   LEXCH   =     8    internal setting for exchange type
   VOSKOWN=      0    Vosko Wilk Nusair interpolation
   LHFCALC =     F    Hartree Fock is set to
   LHFONE  =     F    Hartree Fock one center treatment
   AEXX    =    0.0000 exact exchange contribution

 Linear response parameters
   LEPSILON=     F    determine dielectric tensor
   LRPA    =     F    only Hartree local field effects (RPA)
   LNABLA  =     F    use nabla operator in PAW spheres
   LVEL    =     F    velocity operator in full k-point grid
   LINTERFAST=   F  fast interpolation
   KINTER  =     0    interpolate to denser k-point grid
   CSHIFT  =0.1000    complex shift for real part using Kramers Kronig
   OMEGAMAX=  -1.0    maximum frequency
   DEG_THRESHOLD= 0.2000000E-02 threshold for treating states as degnerate
   RTIME   =   -0.100 relaxation time in fs
  (WPLASMAI=    0.000 imaginary part of plasma frequency in eV, 0.658/RTIME)
   DFIELD  = 0.0000000 0.0000000 0.0000000 field for delta impulse in time
 
 Orbital magnetization related:
   ORBITALMAG=     F  switch on orbital magnetization
   LCHIMAG   =     F  perturbation theory with respect to B field
   DQ        =  0.001000  dq finite difference perturbation B field
   LLRAUG    =     F  two centre corrections for induced B field



--------------------------------------------------------------------------------------------------------


 Static calculation
 charge density and potential will be updated during run
 spin polarized calculation
 Variant of blocked Davidson
 Davidson routine will perform the subspace rotation
 perform sub-space diagonalisation
    after iterative eigenvector-optimisation
 modified Broyden-mixing scheme, WC =      100.0
 initial mixing is a Kerker type mixing with AMIX =  0.1800 and BMIX =      0.0025
 Hartree-type preconditioning will be used
 using additional bands           34
 real space projection scheme for non local part
 use partial core corrections
 calculate Harris-corrections to forces 
   (improved forces if not selfconsistent)
 use gradient corrections 
 use of overlap-Matrix (Vanderbilt PP)
 Methfessel and Paxton  Order N= 1 SIGMA  =   0.10


--------------------------------------------------------------------------------------------------------


  energy-cutoff  :      500.00
  volume of cell :      175.73
      direct lattice vectors                 reciprocal lattice vectors
     5.582489887  0.000000000  0.000000000     0.179131538  0.000000000  0.000000000
     0.000000000  5.582489887  0.000000000     0.000000000  0.179131538  0.000000000
     0.000000000  0.000000000  5.638717208     0.000000000  0.000000000  0.177345301

  length of vectors
     5.582489887  5.582489887  5.638717208     0.179131538  0.179131538  0.177345301


 
 k-points in units of 2pi/SCALE and weight: Ni7CoMn5CrSn2                           
   0.06493518  0.06493518  0.06428767       0.016
   0.19480555  0.06493518  0.06428767       0.031
   0.32467591  0.06493518  0.06428767       0.031
   0.45454628  0.06493518  0.06428767       0.031
   0.19480555  0.19480555  0.06428767       0.016
   0.32467591  0.19480555  0.06428767       0.031
   0.45454628  0.19480555  0.06428767       0.031
   0.32467591  0.32467591  0.06428767       0.016
   0.45454628  0.32467591  0.06428767       0.031
   0.45454628  0.45454628  0.06428767       0.016
   0.06493518  0.06493518  0.19286301       0.016
   0.19480555  0.06493518  0.19286301       0.031
   0.32467591  0.06493518  0.19286301       0.031
   0.45454628  0.06493518  0.19286301       0.031
   0.19480555  0.19480555  0.19286301       0.016
   0.32467591  0.19480555  0.19286301       0.031
   0.45454628  0.19480555  0.19286301       0.031
   0.32467591  0.32467591  0.19286301       0.016
   0.45454628  0.32467591  0.19286301       0.031
   0.45454628  0.45454628  0.19286301       0.016
   0.06493518  0.06493518  0.32143836       0.016
   0.19480555  0.06493518  0.32143836       0.031
   0.32467591  0.06493518  0.32143836       0.031
   0.45454628  0.06493518  0.32143836       0.031
   0.19480555  0.19480555  0.32143836       0.016
   0.32467591  0.19480555  0.32143836       0.031
   0.45454628  0.19480555  0.32143836       0.031
   0.32467591  0.32467591  0.32143836       0.016
   0.45454628  0.32467591  0.32143836       0.031
   0.45454628  0.45454628  0.32143836       0.016
   0.06493518  0.06493518  0.45001370       0.016
   0.19480555  0.06493518  0.45001370       0.031
   0.32467591  0.06493518  0.45001370       0.031
   0.45454628  0.06493518  0.45001370       0.031
   0.19480555  0.19480555  0.45001370       0.016
   0.32467591  0.19480555  0.45001370       0.031
   0.45454628  0.19480555  0.45001370       0.031
   0.32467591  0.32467591  0.45001370       0.016
   0.45454628  0.32467591  0.45001370       0.031
   0.45454628  0.45454628  0.45001370       0.016
 
 k-points in reciprocal lattice and weights: Ni7CoMn5CrSn2                           
   0.06250000  0.06250000  0.06250000       0.016
   0.18750000  0.06250000  0.06250000       0.031
   0.31250000  0.06250000  0.06250000       0.031
   0.43750000  0.06250000  0.06250000       0.031
   0.18750000  0.18750000  0.06250000       0.016
   0.31250000  0.18750000  0.06250000       0.031
   0.43750000  0.18750000  0.06250000       0.031
   0.31250000  0.31250000  0.06250000       0.016
   0.43750000  0.31250000  0.06250000       0.031
   0.43750000  0.43750000  0.06250000       0.016
   0.06250000  0.06250000  0.18750000       0.016
   0.18750000  0.06250000  0.18750000       0.031
   0.31250000  0.06250000  0.18750000       0.031
   0.43750000  0.06250000  0.18750000       0.031
   0.18750000  0.18750000  0.18750000       0.016
   0.31250000  0.18750000  0.18750000       0.031
   0.43750000  0.18750000  0.18750000       0.031
   0.31250000  0.31250000  0.18750000       0.016
   0.43750000  0.31250000  0.18750000       0.031
   0.43750000  0.43750000  0.18750000       0.016
   0.06250000  0.06250000  0.31250000       0.016
   0.18750000  0.06250000  0.31250000       0.031
   0.31250000  0.06250000  0.31250000       0.031
   0.43750000  0.06250000  0.31250000       0.031
   0.18750000  0.18750000  0.31250000       0.016
   0.31250000  0.18750000  0.31250000       0.031
   0.43750000  0.18750000  0.31250000       0.031
   0.31250000  0.31250000  0.31250000       0.016
   0.43750000  0.31250000  0.31250000       0.031
   0.43750000  0.43750000  0.31250000       0.016
   0.06250000  0.06250000  0.43750000       0.016
   0.18750000  0.06250000  0.43750000       0.031
   0.31250000  0.06250000  0.43750000       0.031
   0.43750000  0.06250000  0.43750000       0.031
   0.18750000  0.18750000  0.43750000       0.016
   0.31250000  0.18750000  0.43750000       0.031
   0.43750000  0.18750000  0.43750000       0.031
   0.31250000  0.31250000  0.43750000       0.016
   0.43750000  0.31250000  0.43750000       0.031
   0.43750000  0.43750000  0.43750000       0.016
 
 position of ions in fractional coordinates (direct lattice) 
   0.00000000  0.50000000  0.50000000
   0.00000000  0.00000000  0.50000000
   0.50000000  0.50000000  0.50000000
   0.50000000  0.00000000  0.50000000
   0.25000000  0.75000000  0.25482059
   0.75000000  0.25000000  0.25482059
   0.25000000  0.25000000  0.74517941
   0.75000000  0.75000000  0.74517941
   0.50000000  0.50000000  0.00000000
   0.00000000  0.00000000  0.00000000
   0.50000000  0.00000000  0.00000000
   0.00000000  0.50000000  0.00000000
   0.25000000  0.25000000  0.24857233
   0.25000000  0.75000000  0.75142767
   0.75000000  0.75000000  0.24857233
   0.75000000  0.25000000  0.75142767
 
 position of ions in cartesian coordinates  (Angst):
   0.00000000  2.79124494  2.81935860
   0.00000000  0.00000000  2.81935860
   2.79124494  2.79124494  2.81935860
   2.79124494  0.00000000  2.81935860
   1.39562247  4.18686741  1.43686122
   4.18686741  1.39562247  1.43686122
   1.39562247  1.39562247  4.20185599
   4.18686741  4.18686741  4.20185599
   2.79124494  2.79124494  0.00000000
   0.00000000  0.00000000  0.00000000
   2.79124494  0.00000000  0.00000000
   0.00000000  2.79124494  0.00000000
   1.39562247  1.39562247  1.40162909
   1.39562247  4.18686741  4.23708812
   4.18686741  4.18686741  1.40162909
   4.18686741  1.39562247  4.23708812
 


--------------------------------------------------------------------------------------------------------


 k-point   1 :   0.0625 0.0625 0.0625  plane waves:    4466
 k-point   2 :   0.1875 0.0625 0.0625  plane waves:    4466
 k-point   3 :   0.3125 0.0625 0.0625  plane waves:    4463
 k-point   4 :   0.4375 0.0625 0.0625  plane waves:    4460
 k-point   5 :   0.1875 0.1875 0.0625  plane waves:    4464
 k-point   6 :   0.3125 0.1875 0.0625  plane waves:    4464
 k-point   7 :   0.4375 0.1875 0.0625  plane waves:    4455
 k-point   8 :   0.3125 0.3125 0.0625  plane waves:    4470
 k-point   9 :   0.4375 0.3125 0.0625  plane waves:    4458
 k-point  10 :   0.4375 0.4375 0.0625  plane waves:    4469
 k-point  11 :   0.0625 0.0625 0.1875  plane waves:    4475
 k-point  12 :   0.1875 0.0625 0.1875  plane waves:    4465
 k-point  13 :   0.3125 0.0625 0.1875  plane waves:    4467
 k-point  14 :   0.4375 0.0625 0.1875  plane waves:    4455
 k-point  15 :   0.1875 0.1875 0.1875  plane waves:    4457
 k-point  16 :   0.3125 0.1875 0.1875  plane waves:    4457
 k-point  17 :   0.4375 0.1875 0.1875  plane waves:    4448
 k-point  18 :   0.3125 0.3125 0.1875  plane waves:    4452
 k-point  19 :   0.4375 0.3125 0.1875  plane waves:    4459
 k-point  20 :   0.4375 0.4375 0.1875  plane waves:    4484
 k-point  21 :   0.0625 0.0625 0.3125  plane waves:    4465
 k-point  22 :   0.1875 0.0625 0.3125  plane waves:    4451
 k-point  23 :   0.3125 0.0625 0.3125  plane waves:    4458
 k-point  24 :   0.4375 0.0625 0.3125  plane waves:    4459
 k-point  25 :   0.1875 0.1875 0.3125  plane waves:    4453
 k-point  26 :   0.3125 0.1875 0.3125  plane waves:    4451
 k-point  27 :   0.4375 0.1875 0.3125  plane waves:    4458
 k-point  28 :   0.3125 0.3125 0.3125  plane waves:    4459
 k-point  29 :   0.4375 0.3125 0.3125  plane waves:    4469
 k-point  30 :   0.4375 0.4375 0.3125  plane waves:    4464
 k-point  31 :   0.0625 0.0625 0.4375  plane waves:    4447
 k-point  32 :   0.1875 0.0625 0.4375  plane waves:    4445
 k-point  33 :   0.3125 0.0625 0.4375  plane waves:    4451
 k-point  34 :   0.4375 0.0625 0.4375  plane waves:    4459
 k-point  35 :   0.1875 0.1875 0.4375  plane waves:    4442
 k-point  36 :   0.3125 0.1875 0.4375  plane waves:    4457
 k-point  37 :   0.4375 0.1875 0.4375  plane waves:    4466
 k-point  38 :   0.3125 0.3125 0.4375  plane waves:    4467
 k-point  39 :   0.4375 0.3125 0.4375  plane waves:    4483
 k-point  40 :   0.4375 0.4375 0.4375  plane waves:    4483

 maximum and minimum number of plane-waves per node :       468      426

 maximum number of plane-waves:      4484
 maximum index in each direction: 
   IXMAX=   10   IYMAX=   10   IZMAX=   10
   IXMIN=  -10   IYMIN=  -10   IZMIN=  -10


 real space projection operators:
  total allocation   :      10003.62 KBytes
  max/ min on nodes  :       1092.06        864.25


 parallel 3D FFT for wavefunctions:
    minimum data exchange during FFTs selected (reduces bandwidth)
 parallel 3D FFT for charge:
    minimum data exchange during FFTs selected (reduces bandwidth)


 total amount of memory used by VASP MPI-rank0    49184. kBytes
=======================================================================

   base      :      30000. kBytes
   nonlr-proj:       2888. kBytes
   fftplans  :       3254. kBytes
   grid      :       2822. kBytes
   one-center:         62. kBytes
   wavefun   :      10158. kBytes
 
     INWAV:  cpu time    0.0000: real time    0.0000
 Broyden mixing: mesh for mixing (old mesh)
   NGX = 21   NGY = 21   NGZ = 21
  (NGX  = 84   NGY  = 84   NGZ  = 84)
  gives a total of   9261 points

 initial charge density was supplied:
 charge density of overlapping atoms calculated
 number of electron     188.0000000 magnetization      23.2000000
 keeping initial charge density in first step


--------------------------------------------------------------------------------------------------------


 Maximum index for non-local projection operator          803
 Maximum index for augmentation-charges         5214 (set IRDMAX)


--------------------------------------------------------------------------------------------------------


 First call to EWALD:  gamma=   0.316
 Maximum number of real-space cells 3x 3x 3
 Maximum number of reciprocal cells 3x 3x 3

    FEWALD:  cpu time    0.0000: real time    0.0015


--------------------------------------- Iteration      1(   1)  ---------------------------------------


    POTLOK:  cpu time    0.1160: real time    0.1813
    SETDIJ:  cpu time    0.0880: real time    0.0885
     EDDAV:  cpu time    8.9686: real time    8.9979
       DOS:  cpu time    0.0080: real time    0.0066
    --------------------------------------------
      LOOP:  cpu time    9.1806: real time    9.2744

 eigenvalue-minimisations  : 20840
 total energy-change (2. order) : 0.2693325E+04  (-0.9060426E+04)
 number of electron     188.0000000 magnetization      23.2000000
 augmentation part      188.0000000 magnetization      23.2000000

 Free energy of the ion-electron system (eV)
  ---------------------------------------------------
  alpha Z        PSCENC =      1253.00064523
  Ewald energy   TEWEN  =    -22207.29424930
  -Hartree energ DENC   =     -8643.06925289
  -exchange      EXHF   =         0.00000000
  -V(xc)+E(xc)   XCENC  =       909.36538402
  PAW double counting   =     25735.45600997   -27176.27888444
  entropy T*S    EENTRO =        -0.00178890
  eigenvalues    EBANDS =       958.03602699
  atomic energy  EATOM  =     31864.11063514
  Solvation  Ediel_sol  =         0.00000000
  ---------------------------------------------------
  free energy    TOTEN  =      2693.32452583 eV

  energy without entropy =     2693.32631473  energy(sigma->0) =     2693.32512213


--------------------------------------------------------------------------------------------------------




--------------------------------------- Iteration      1(   2)  ---------------------------------------


     EDDAV:  cpu time    8.8045: real time    8.8347
       DOS:  cpu time    0.0080: real time    0.0075
    --------------------------------------------
      LOOP:  cpu time    8.8126: real time    8.8422

 eigenvalue-minimisations  : 20480
 total energy-change (2. order) :-0.2457419E+04  (-0.2339366E+04)
 number of electron     188.0000000 magnetization      23.2000000
 augmentation part      188.0000000 magnetization      23.2000000

 Free energy of the ion-electron system (eV)
  ---------------------------------------------------
  alpha Z        PSCENC =      1253.00064523
  Ewald energy   TEWEN  =    -22207.29424930
  -Hartree energ DENC   =     -8643.06925289
  -exchange      EXHF   =         0.00000000
  -V(xc)+E(xc)   XCENC  =       909.36538402
  PAW double counting   =     25735.45600997   -27176.27888444
  entropy T*S    EENTRO =        -0.00184743
  eigenvalues    EBANDS =     -1499.38246024
  atomic energy  EATOM  =     31864.11063514
  Solvation  Ediel_sol  =         0.00000000
  ---------------------------------------------------
  free energy    TOTEN  =       235.90598006 eV

  energy without entropy =      235.90782749  energy(sigma->0) =      235.90659587


--------------------------------------------------------------------------------------------------------




--------------------------------------- Iteration      1(   3)  ---------------------------------------


     EDDAV:  cpu time    8.9126: real time    8.9426
       DOS:  cpu time    0.0080: real time    0.0078
    --------------------------------------------
      LOOP:  cpu time    8.9206: real time    8.9504

 eigenvalue-minimisations  : 20888
 total energy-change (2. order) :-0.3523013E+03  (-0.3111913E+03)
 number of electron     188.0000000 magnetization      23.2000000
 augmentation part      188.0000000 magnetization      23.2000000

 Free energy of the ion-electron system (eV)
  ---------------------------------------------------
  alpha Z        PSCENC =      1253.00064523
  Ewald energy   TEWEN  =    -22207.29424930
  -Hartree energ DENC   =     -8643.06925289
  -exchange      EXHF   =         0.00000000
  -V(xc)+E(xc)   XCENC  =       909.36538402
  PAW double counting   =     25735.45600997   -27176.27888444
  entropy T*S    EENTRO =        -0.00232912
  eigenvalues    EBANDS =     -1851.68326751
  atomic energy  EATOM  =     31864.11063514
  Solvation  Ediel_sol  =         0.00000000
  ---------------------------------------------------
  free energy    TOTEN  =      -116.39530889 eV

  energy without entropy =     -116.39297977  energy(sigma->0) =     -116.39453252


--------------------------------------------------------------------------------------------------------




--------------------------------------- Iteration      1(   4)  ---------------------------------------


     EDDAV:  cpu time    9.3206: real time    9.3513
       DOS:  cpu time    0.0040: real time    0.0074
    --------------------------------------------
      LOOP:  cpu time    9.3246: real time    9.3587

 eigenvalue-minimisations  : 22184
 total energy-change (2. order) :-0.1971948E+02  (-0.1936127E+02)
 number of electron     188.0000000 magnetization      23.2000000
 augmentation part      188.0000000 magnetization      23.2000000

 Free energy of the ion-electron system (eV)
  ---------------------------------------------------
  alpha Z        PSCENC =      1253.00064523
  Ewald energy   TEWEN  =    -22207.29424930
  -Hartree energ DENC   =     -8643.06925289
  -exchange      EXHF   =         0.00000000
  -V(xc)+E(xc)   XCENC  =       909.36538402
  PAW double counting   =     25735.45600997   -27176.27888444
  entropy T*S    EENTRO =         0.00152914
  eigenvalues    EBANDS =     -1871.40660942
  atomic energy  EATOM  =     31864.11063514
  Solvation  Ediel_sol  =         0.00000000
  ---------------------------------------------------
  free energy    TOTEN  =      -136.11479255 eV

  energy without entropy =     -136.11632169  energy(sigma->0) =     -136.11530226


--------------------------------------------------------------------------------------------------------




--------------------------------------- Iteration      1(   5)  ---------------------------------------


     EDDAV:  cpu time    9.4046: real time    9.4345
       DOS:  cpu time    0.0080: real time    0.0079
    --------------------------------------------
      LOOP:  cpu time    9.4126: real time    9.4424

 eigenvalue-minimisations  : 22392
 total energy-change (2. order) :-0.3631777E+00  (-0.3625718E+00)
 number of electron     188.0000000 magnetization      23.2000000
 augmentation part      188.0000000 magnetization      23.2000000

 Free energy of the ion-electron system (eV)
  ---------------------------------------------------
  alpha Z        PSCENC =      1253.00064523
  Ewald energy   TEWEN  =    -22207.29424930
  -Hartree energ DENC   =     -8643.06925289
  -exchange      EXHF   =         0.00000000
  -V(xc)+E(xc)   XCENC  =       909.36538402
  PAW double counting   =     25735.45600997   -27176.27888444
  entropy T*S    EENTRO =         0.00152397
  eigenvalues    EBANDS =     -1871.76978194
  atomic energy  EATOM  =     31864.11063514
  Solvation  Ediel_sol  =         0.00000000
  ---------------------------------------------------
  free energy    TOTEN  =      -136.47797023 eV

  energy without entropy =     -136.47949420  energy(sigma->0) =     -136.47847822


--------------------------------------------------------------------------------------------------------




--------------------------------------- Iteration      1(   6)  ---------------------------------------


     EDDAV:  cpu time    9.2846: real time    9.3154
       DOS:  cpu time    0.0080: real time    0.0078
    CHARGE:  cpu time    0.2720: real time    0.2738
    MIXING:  cpu time    0.0040: real time    0.0026
    --------------------------------------------
      LOOP:  cpu time    9.5686: real time    9.5996

 eigenvalue-minimisations  : 22112
 total energy-change (2. order) :-0.1105676E-01  (-0.1105620E-01)
 number of electron     188.0000007 magnetization      22.4508951
 augmentation part       98.7668236 magnetization      17.1789284

 Broyden mixing:
  rms(total) = 0.45365E+01    rms(broyden)= 0.45358E+01
  rms(prec ) = 0.65683E+01
  weight for this iteration     100.00

 Free energy of the ion-electron system (eV)
  ---------------------------------------------------
  alpha Z        PSCENC =      1253.00064523
  Ewald energy   TEWEN  =    -22207.29424930
  -Hartree energ DENC   =     -8643.06925289
  -exchange      EXHF   =         0.00000000
  -V(xc)+E(xc)   XCENC  =       909.36538402
  PAW double counting   =     25735.45600997   -27176.27888444
  entropy T*S    EENTRO =         0.00152357
  eigenvalues    EBANDS =     -1871.78083829
  atomic energy  EATOM  =     31864.11063514
  Solvation  Ediel_sol  =         0.00000000
  ---------------------------------------------------
  free energy    TOTEN  =      -136.48902699 eV

  energy without entropy =     -136.49055056  energy(sigma->0) =     -136.48953484


--------------------------------------------------------------------------------------------------------




--------------------------------------- Iteration      1(   7)  ---------------------------------------


    POTLOK:  cpu time    0.0600: real time    0.0596
    SETDIJ:  cpu time    0.0640: real time    0.0648
     EDDAV:  cpu time    9.2726: real time    9.3051
       DOS:  cpu time    0.0080: real time    0.0080
    CHARGE:  cpu time    0.2680: real time    0.2689
    MIXING:  cpu time    0.0040: real time    0.0012
    --------------------------------------------
      LOOP:  cpu time    9.6766: real time    9.7075

 eigenvalue-minimisations  : 22056
 total energy-change (2. order) : 0.1242800E+02  (-0.4225098E+01)
 number of electron     188.0000007 magnetization      21.8758243
 augmentation part      105.3328248 magnetization      17.2807735

 Broyden mixing:
  rms(total) = 0.33681E+01    rms(broyden)= 0.33679E+01
  rms(prec ) = 0.60176E+01
  weight for this iteration     100.00

 eigenvalues of (default mixing * dielectric matrix)
  average eigenvalue GAMMA=   0.7284
  0.7284

 Free energy of the ion-electron system (eV)
  ---------------------------------------------------
  alpha Z        PSCENC =      1253.00064523
  Ewald energy   TEWEN  =    -22207.29424930
  -Hartree energ DENC   =     -8343.75671642
  -exchange      EXHF   =         0.00000000
  -V(xc)+E(xc)   XCENC  =       897.85791824
  PAW double counting   =     26223.86046874   -27635.10556259
  entropy T*S    EENTRO =         0.00279010
  eigenvalues    EBANDS =     -2176.73695364
  atomic energy  EATOM  =     31864.11063514
  Solvation  Ediel_sol  =         0.00000000
  ---------------------------------------------------
  free energy    TOTEN  =      -124.06102451 eV

  energy without entropy =     -124.06381461  energy(sigma->0) =     -124.06195454


--------------------------------------------------------------------------------------------------------




--------------------------------------- Iteration      1(   8)  ---------------------------------------


    POTLOK:  cpu time    0.0600: real time    0.0599
    SETDIJ:  cpu time    0.0600: real time    0.0631
     EDDAV:  cpu time    9.5766: real time    9.6059
       DOS:  cpu time    0.0080: real time    0.0080
    CHARGE:  cpu time    0.2600: real time    0.2639
    MIXING:  cpu time    0.0040: real time    0.0012
    --------------------------------------------
      LOOP:  cpu time    9.9686: real time   10.0020

 eigenvalue-minimisations  : 23008
 total energy-change (2. order) :-0.6771216E+01  (-0.2858477E+01)
 number of electron     188.0000007 magnetization      21.0318467
 augmentation part      105.2315004 magnetization      16.6858068

 Broyden mixing:
  rms(total) = 0.45766E+01    rms(broyden)= 0.45764E+01
  rms(prec ) = 0.89344E+01
  weight for this iteration     100.00

 eigenvalues of (default mixing * dielectric matrix)
  average eigenvalue GAMMA=   0.7861
  1.3627  0.2096

 Free energy of the ion-electron system (eV)
  ---------------------------------------------------
  alpha Z        PSCENC =      1253.00064523
  Ewald energy   TEWEN  =    -22207.29424930
  -Hartree energ DENC   =     -8322.28687378
  -exchange      EXHF   =         0.00000000
  -V(xc)+E(xc)   XCENC  =       896.71192484
  PAW double counting   =     26591.25343703   -28007.98755742
  entropy T*S    EENTRO =         0.00034920
  eigenvalues    EBANDS =     -2198.34055130
  atomic energy  EATOM  =     31864.11063514
  Solvation  Ediel_sol  =         0.00000000
  ---------------------------------------------------
  free energy    TOTEN  =      -130.83224036 eV

  energy without entropy =     -130.83258956  energy(sigma->0) =     -130.83235676


--------------------------------------------------------------------------------------------------------




--------------------------------------- Iteration      1(   9)  ---------------------------------------


    POTLOK:  cpu time    0.0600: real time    0.0601
    SETDIJ:  cpu time    0.0640: real time    0.0659
     EDDAV:  cpu time    9.8566: real time    9.8871
       DOS:  cpu time    0.0040: real time    0.0076
    CHARGE:  cpu time    0.2640: real time    0.2631
    MIXING:  cpu time    0.0000: real time    0.0016
    --------------------------------------------
      LOOP:  cpu time   10.2486: real time   10.2855

 eigenvalue-minimisations  : 23896
 total energy-change (2. order) : 0.7880927E+01  (-0.1139053E+01)
 number of electron     188.0000007 magnetization      20.8687242
 augmentation part      106.6123283 magnetization      16.2073194

 Broyden mixing:
  rms(total) = 0.22762E+01    rms(broyden)= 0.22760E+01
  rms(prec ) = 0.36112E+01
  weight for this iteration     100.00

 eigenvalues of (default mixing * dielectric matrix)
  average eigenvalue GAMMA=   0.7030
  1.5307  0.3252  0.2530

 Free energy of the ion-electron system (eV)
  ---------------------------------------------------
  alpha Z        PSCENC =      1253.00064523
  Ewald energy   TEWEN  =    -22207.29424930
  -Hartree energ DENC   =     -8274.76080722
  -exchange      EXHF   =         0.00000000
  -V(xc)+E(xc)   XCENC  =       894.69816912
  PAW double counting   =     27196.51531114   -28613.97016433
  entropy T*S    EENTRO =         0.00183023
  eigenvalues    EBANDS =     -2235.25268315
  atomic energy  EATOM  =     31864.11063514
  Solvation  Ediel_sol  =         0.00000000
  ---------------------------------------------------
  free energy    TOTEN  =      -122.95131314 eV

  energy without entropy =     -122.95314338  energy(sigma->0) =     -122.95192322


--------------------------------------------------------------------------------------------------------




--------------------------------------- Iteration      1(  10)  ---------------------------------------


    POTLOK:  cpu time    0.0600: real time    0.0593
    SETDIJ:  cpu time    0.0680: real time    0.0672
     EDDAV:  cpu time    9.7366: real time    9.7704
       DOS:  cpu time    0.0080: real time    0.0079
    CHARGE:  cpu time    0.2640: real time    0.2657
    MIXING:  cpu time    0.0040: real time    0.0012
    --------------------------------------------
      LOOP:  cpu time   10.1406: real time   10.1718

 eigenvalue-minimisations  : 23512
 total energy-change (2. order) : 0.1444546E+01  (-0.2339173E+00)
 number of electron     188.0000007 magnetization      20.2994471
 augmentation part      106.3233557 magnetization      15.9568384

 Broyden mixing:
  rms(total) = 0.15319E+01    rms(broyden)= 0.15318E+01
  rms(prec ) = 0.18804E+01
  weight for this iteration     100.00

 eigenvalues of (default mixing * dielectric matrix)
  average eigenvalue GAMMA=   0.9059
  2.1905  0.8870  0.2216  0.3247

 Free energy of the ion-electron system (eV)
  ---------------------------------------------------
  alpha Z        PSCENC =      1253.00064523
  Ewald energy   TEWEN  =    -22207.29424930
  -Hartree energ DENC   =     -8271.29129093
  -exchange      EXHF   =         0.00000000
  -V(xc)+E(xc)   XCENC  =       894.57956698
  PAW double counting   =     27442.80561131   -28864.49019342
  entropy T*S    EENTRO =        -0.00118330
  eigenvalues    EBANDS =     -2232.92630913
  atomic energy  EATOM  =     31864.11063514
  Solvation  Ediel_sol  =         0.00000000
  ---------------------------------------------------
  free energy    TOTEN  =      -121.50676741 eV

  energy without entropy =     -121.50558411  energy(sigma->0) =     -121.50637298


--------------------------------------------------------------------------------------------------------




--------------------------------------- Iteration      1(  11)  ---------------------------------------


    POTLOK:  cpu time    0.0560: real time    0.0592
    SETDIJ:  cpu time    0.0680: real time    0.0671
     EDDAV:  cpu time    9.9166: real time    9.9468
       DOS:  cpu time    0.0080: real time    0.0080
    CHARGE:  cpu time    0.2600: real time    0.2635
    MIXING:  cpu time    0.0040: real time    0.0013
    --------------------------------------------
      LOOP:  cpu time   10.3126: real time   10.3459

 eigenvalue-minimisations  : 23976
 total energy-change (2. order) :-0.1285068E+00  (-0.1067111E+00)
 number of electron     188.0000007 magnetization      19.5176667
 augmentation part      106.3207236 magnetization      15.3271307

 Broyden mixing:
  rms(total) = 0.10051E+01    rms(broyden)= 0.10050E+01
  rms(prec ) = 0.12012E+01
  weight for this iteration     100.00

 eigenvalues of (default mixing * dielectric matrix)
  average eigenvalue GAMMA=   1.5386
  5.0509  1.0408  1.0408  0.3375  0.2231

 Free energy of the ion-electron system (eV)
  ---------------------------------------------------
  alpha Z        PSCENC =      1253.00064523
  Ewald energy   TEWEN  =    -22207.29424930
  -Hartree energ DENC   =     -8252.90581224
  -exchange      EXHF   =         0.00000000
  -V(xc)+E(xc)   XCENC  =       893.88070800
  PAW double counting   =     28534.81421992   -29968.48658771
  entropy T*S    EENTRO =         0.00181468
  eigenvalues    EBANDS =     -2238.75664789
  atomic energy  EATOM  =     31864.11063514
  Solvation  Ediel_sol  =         0.00000000
  ---------------------------------------------------
  free energy    TOTEN  =      -121.63527418 eV

  energy without entropy =     -121.63708886  energy(sigma->0) =     -121.63587907


--------------------------------------------------------------------------------------------------------




--------------------------------------- Iteration      1(  12)  ---------------------------------------


    POTLOK:  cpu time    0.0560: real time    0.0597
    SETDIJ:  cpu time    0.0680: real time    0.0669
     EDDAV:  cpu time    9.9406: real time    9.9744
       DOS:  cpu time    0.0080: real time    0.0079
    CHARGE:  cpu time    0.2680: real time    0.2668
    MIXING:  cpu time    0.0000: real time    0.0025
    --------------------------------------------
      LOOP:  cpu time   10.3406: real time   10.3782

 eigenvalue-minimisations  : 24080
 total energy-change (2. order) :-0.8440350E-01  (-0.7779122E-01)
 number of electron     188.0000007 magnetization      19.7032803
 augmentation part      106.3512477 magnetization      15.6265659

 Broyden mixing:
  rms(total) = 0.32890E+00    rms(broyden)= 0.32884E+00
  rms(prec ) = 0.39483E+00
  weight for this iteration     100.00

 eigenvalues of (default mixing * dielectric matrix)
  average eigenvalue GAMMA=   1.4866
  5.0779  1.2427  1.2427  0.7941  0.2230  0.3394

 Free energy of the ion-electron system (eV)
  ---------------------------------------------------
  alpha Z        PSCENC =      1253.00064523
  Ewald energy   TEWEN  =    -22207.29424930
  -Hartree energ DENC   =     -8227.03353879
  -exchange      EXHF   =         0.00000000
  -V(xc)+E(xc)   XCENC  =       893.06697557
  PAW double counting   =     30342.70038866   -31795.55992876
  entropy T*S    EENTRO =        -0.00025774
  eigenvalues    EBANDS =     -2244.71034768
  atomic energy  EATOM  =     31864.11063514
  Solvation  Ediel_sol  =         0.00000000
  ---------------------------------------------------
  free energy    TOTEN  =      -121.71967767 eV

  energy without entropy =     -121.71941994  energy(sigma->0) =     -121.71959176


--------------------------------------------------------------------------------------------------------




--------------------------------------- Iteration      1(  13)  ---------------------------------------


    POTLOK:  cpu time    0.0600: real time    0.0594
    SETDIJ:  cpu time    0.0640: real time    0.0657
     EDDAV:  cpu time    9.1806: real time    9.2075
       DOS:  cpu time    0.0080: real time    0.0079
    CHARGE:  cpu time    0.2640: real time    0.2664
    MIXING:  cpu time    0.0000: real time    0.0014
    --------------------------------------------
      LOOP:  cpu time    9.5766: real time    9.6083

 eigenvalue-minimisations  : 21760
 total energy-change (2. order) :-0.8408231E-03  (-0.6337937E-02)
 number of electron     188.0000007 magnetization      20.0843890
 augmentation part      106.3507486 magnetization      16.0445519

 Broyden mixing:
  rms(total) = 0.26120E+00    rms(broyden)= 0.26120E+00
  rms(prec ) = 0.33770E+00
  weight for this iteration     100.00

 eigenvalues of (default mixing * dielectric matrix)
  average eigenvalue GAMMA=   1.8820
  5.6257  3.9252  1.0839  1.0839  0.8938  0.2230  0.3387

 Free energy of the ion-electron system (eV)
  ---------------------------------------------------
  alpha Z        PSCENC =      1253.00064523
  Ewald energy   TEWEN  =    -22207.29424930
  -Hartree energ DENC   =     -8225.30438420
  -exchange      EXHF   =         0.00000000
  -V(xc)+E(xc)   XCENC  =       893.18788857
  PAW double counting   =     30347.59167754   -31801.58986071
  entropy T*S    EENTRO =        -0.00002930
  eigenvalues    EBANDS =     -2245.42284146
  atomic energy  EATOM  =     31864.11063514
  Solvation  Ediel_sol  =         0.00000000
  ---------------------------------------------------
  free energy    TOTEN  =      -121.72051850 eV

  energy without entropy =     -121.72048920  energy(sigma->0) =     -121.72050873


--------------------------------------------------------------------------------------------------------




--------------------------------------- Iteration      1(  14)  ---------------------------------------


    POTLOK:  cpu time    0.0600: real time    0.0597
    SETDIJ:  cpu time    0.0680: real time    0.0668
     EDDAV:  cpu time    9.5086: real time    9.5431
       DOS:  cpu time    0.0080: real time    0.0078
    CHARGE:  cpu time    0.2680: real time    0.2682
    MIXING:  cpu time    0.0040: real time    0.0013
    --------------------------------------------
      LOOP:  cpu time    9.9166: real time    9.9469

 eigenvalue-minimisations  : 22784
 total energy-change (2. order) :-0.4887783E-03  (-0.6154897E-02)
 number of electron     188.0000007 magnetization      20.1096383
 augmentation part      106.3250199 magnetization      16.1128516

 Broyden mixing:
  rms(total) = 0.68196E-01    rms(broyden)= 0.68185E-01
  rms(prec ) = 0.80412E-01
  weight for this iteration     100.00

 eigenvalues of (default mixing * dielectric matrix)
  average eigenvalue GAMMA=   1.8972
  6.2182  4.2626  0.2230  0.3387  1.1640  0.9333  1.0187  1.0187

 Free energy of the ion-electron system (eV)
  ---------------------------------------------------
  alpha Z        PSCENC =      1253.00064523
  Ewald energy   TEWEN  =    -22207.29424930
  -Hartree energ DENC   =     -8223.68890957
  -exchange      EXHF   =         0.00000000
  -V(xc)+E(xc)   XCENC  =       893.55050124
  PAW double counting   =     30395.48731952   -31852.83918138
  entropy T*S    EENTRO =         0.00085010
  eigenvalues    EBANDS =     -2244.04861824
  atomic energy  EATOM  =     31864.11063514
  Solvation  Ediel_sol  =         0.00000000
  ---------------------------------------------------
  free energy    TOTEN  =      -121.72100728 eV

  energy without entropy =     -121.72185737  energy(sigma->0) =     -121.72129064


--------------------------------------------------------------------------------------------------------




--------------------------------------- Iteration      1(  15)  ---------------------------------------


    POTLOK:  cpu time    0.0560: real time    0.0591
    SETDIJ:  cpu time    0.0680: real time    0.0683
     EDDAV:  cpu time    9.2566: real time    9.2853
       DOS:  cpu time    0.0080: real time    0.0072
    CHARGE:  cpu time    0.2640: real time    0.2666
    MIXING:  cpu time    0.0040: real time    0.0028
    --------------------------------------------
      LOOP:  cpu time    9.6566: real time    9.6893

 eigenvalue-minimisations  : 21992
 total energy-change (2. order) :-0.9785617E-03  (-0.1051086E-02)
 number of electron     188.0000007 magnetization      20.0999458
 augmentation part      106.3021143 magnetization      16.1048574

 Broyden mixing:
  rms(total) = 0.50046E-01    rms(broyden)= 0.50044E-01
  rms(prec ) = 0.56457E-01
  weight for this iteration     100.00

 eigenvalues of (default mixing * dielectric matrix)
  average eigenvalue GAMMA=   1.9205
  5.9948  4.3683  2.1995  0.2230  0.3387  1.1520  1.1520  0.9281  0.9281

 Free energy of the ion-electron system (eV)
  ---------------------------------------------------
  alpha Z        PSCENC =      1253.00064523
  Ewald energy   TEWEN  =    -22207.29424930
  -Hartree energ DENC   =     -8223.75534581
  -exchange      EXHF   =         0.00000000
  -V(xc)+E(xc)   XCENC  =       893.58554628
  PAW double counting   =     30423.36562083   -31881.35819081
  entropy T*S    EENTRO =         0.00096276
  eigenvalues    EBANDS =     -2243.37761016
  atomic energy  EATOM  =     31864.11063514
  Solvation  Ediel_sol  =         0.00000000
  ---------------------------------------------------
  free energy    TOTEN  =      -121.72198584 eV

  energy without entropy =     -121.72294860  energy(sigma->0) =     -121.72230676


--------------------------------------------------------------------------------------------------------




--------------------------------------- Iteration      1(  16)  ---------------------------------------


    POTLOK:  cpu time    0.0560: real time    0.0591
    SETDIJ:  cpu time    0.0720: real time    0.0692
     EDDAV:  cpu time    9.3646: real time    9.3968
       DOS:  cpu time    0.0080: real time    0.0073
    CHARGE:  cpu time    0.2680: real time    0.2684
    MIXING:  cpu time    0.0000: real time    0.0028
    --------------------------------------------
      LOOP:  cpu time    9.7686: real time    9.8038

 eigenvalue-minimisations  : 22408
 total energy-change (2. order) : 0.3615406E-03  (-0.3837484E-03)
 number of electron     188.0000007 magnetization      20.1101282
 augmentation part      106.3175993 magnetization      16.1177963

 Broyden mixing:
  rms(total) = 0.33284E-01    rms(broyden)= 0.33283E-01
  rms(prec ) = 0.38908E-01
  weight for this iteration     100.00

 eigenvalues of (default mixing * dielectric matrix)
  average eigenvalue GAMMA=   2.1112
  7.0080  4.3073  3.8099  0.2230  0.3387  1.3333  0.9171  0.9171  1.1285  1.1285

 Free energy of the ion-electron system (eV)
  ---------------------------------------------------
  alpha Z        PSCENC =      1253.00064523
  Ewald energy   TEWEN  =    -22207.29424930
  -Hartree energ DENC   =     -8223.49224752
  -exchange      EXHF   =         0.00000000
  -V(xc)+E(xc)   XCENC  =       893.52097053
  PAW double counting   =     30388.10799631   -31845.33945364
  entropy T*S    EENTRO =         0.00098686
  eigenvalues    EBANDS =     -2244.33690792
  atomic energy  EATOM  =     31864.11063514
  Solvation  Ediel_sol  =         0.00000000
  ---------------------------------------------------
  free energy    TOTEN  =      -121.72162430 eV

  energy without entropy =     -121.72261116  energy(sigma->0) =     -121.72195325


--------------------------------------------------------------------------------------------------------




--------------------------------------- Iteration      1(  17)  ---------------------------------------


    POTLOK:  cpu time    0.0600: real time    0.0590
    SETDIJ:  cpu time    0.0640: real time    0.0656
     EDDAV:  cpu time    9.7726: real time    9.8023
       DOS:  cpu time    0.0080: real time    0.0078
    CHARGE:  cpu time    0.2680: real time    0.2703
    MIXING:  cpu time    0.0000: real time    0.0016
    --------------------------------------------
      LOOP:  cpu time   10.1726: real time   10.2066

 eigenvalue-minimisations  : 23568
 total energy-change (2. order) :-0.2851595E-03  (-0.8122763E-04)
 number of electron     188.0000007 magnetization      20.0938073
 augmentation part      106.3040210 magnetization      16.1058035

 Broyden mixing:
  rms(total) = 0.20565E-01    rms(broyden)= 0.20563E-01
  rms(prec ) = 0.21844E-01
  weight for this iteration     100.00

 eigenvalues of (default mixing * dielectric matrix)
  average eigenvalue GAMMA=   2.1756
  7.5804  4.7968  4.1388  0.2230  0.3387  1.6521  1.2185  1.2185  0.9390  0.9390
  0.8868

 Free energy of the ion-electron system (eV)
  ---------------------------------------------------
  alpha Z        PSCENC =      1253.00064523
  Ewald energy   TEWEN  =    -22207.29424930
  -Hartree energ DENC   =     -8223.86508378
  -exchange      EXHF   =         0.00000000
  -V(xc)+E(xc)   XCENC  =       893.53933734
  PAW double counting   =     30390.82889610   -31848.16844245
  entropy T*S    EENTRO =         0.00109841
  eigenvalues    EBANDS =     -2243.87474616
  atomic energy  EATOM  =     31864.11063514
  Solvation  Ediel_sol  =         0.00000000
  ---------------------------------------------------
  free energy    TOTEN  =      -121.72190946 eV

  energy without entropy =     -121.72300787  energy(sigma->0) =     -121.72227559


--------------------------------------------------------------------------------------------------------




--------------------------------------- Iteration      1(  18)  ---------------------------------------


    POTLOK:  cpu time    0.0600: real time    0.0598
    SETDIJ:  cpu time    0.0680: real time    0.0664
     EDDAV:  cpu time    9.5966: real time    9.6294
       DOS:  cpu time    0.0080: real time    0.0079
    CHARGE:  cpu time    0.2720: real time    0.2739
    MIXING:  cpu time    0.0040: real time    0.0017
    --------------------------------------------
      LOOP:  cpu time   10.0086: real time   10.0391

 eigenvalue-minimisations  : 23016
 total energy-change (2. order) :-0.1328671E-03  (-0.3603257E-04)
[...]
 -0.000   0.000   0.016   0.000   0.000   0.000   0.000   0.000  -0.006   0.000  -0.000   0.000  -1.426   0.000  -0.000   0.000
  0.000   0.000   0.000   0.000   0.016   0.000  -0.000   0.000  -0.000   0.000  -0.006   0.000  -0.000   0.000  -1.386   0.000
 -0.000   0.000   0.000   0.000   0.000   0.000   0.000   0.000  -0.000   0.000  -0.000   0.000  -0.000   0.000   0.000   0.000
  0.016   0.000  -0.000   0.000   0.000   0.000  -0.006   0.000   0.000   0.000  -0.000   0.000  -0.000   0.000   0.000   0.000
 -0.000   0.000  -0.000   0.000  -0.000   0.000   0.000   0.000   0.000   0.000   0.000   0.000   0.000   0.000  -0.000   0.000
 -0.000   0.000  -0.000   0.000   0.000   0.000  -0.000   0.000  -0.000   0.000   0.000   0.000  -0.000   0.000  -0.000   0.000
 -0.000   0.000  -0.000   0.000   0.000   0.000  -0.000   0.000  -0.000   0.000   0.000   0.000  -0.000   0.000  -0.000   0.000
 pseudopotential strength for first ion, spin component:           2
-42.211   0.000   0.000   0.000   0.000   0.000   6.442   0.000  -0.000   0.000  -0.000   0.000  -0.000   0.000   0.000   0.000
  0.000   0.000 -42.200   0.000   0.000   0.000  -0.000   0.000   6.438   0.000  -0.000   0.000  -0.005   0.000   0.000   0.000
  0.000   0.000   0.000   0.000 -42.211   0.000  -0.000   0.000  -0.000   0.000   6.442   0.000   0.000   0.000  -0.005   0.000
  6.442   0.000  -0.000   0.000  -0.000   0.000   5.930   0.000  -0.000   0.000  -0.000   0.000   0.000   0.000  -0.000   0.000
 -0.000   0.000   6.438   0.000  -0.000   0.000  -0.000   0.000   5.931   0.000  -0.000   0.000   0.004   0.000  -0.000   0.000
 -0.000   0.000  -0.000   0.000   6.442   0.000  -0.000   0.000  -0.000   0.000   5.930   0.000  -0.000   0.000   0.004   0.000
 -0.000   0.000  -0.005   0.000   0.000   0.000   0.000   0.000   0.004   0.000  -0.000   0.000   0.120   0.000  -0.000   0.000
  0.000   0.000   0.000   0.000  -0.005   0.000  -0.000   0.000  -0.000   0.000   0.004   0.000  -0.000   0.000   0.098   0.000
 -0.000   0.000   0.000   0.000   0.000   0.000   0.000   0.000  -0.000   0.000  -0.000   0.000  -0.000   0.000   0.000   0.000
 -0.005   0.000  -0.000   0.000   0.000   0.000   0.004   0.000   0.000   0.000  -0.000   0.000  -0.000   0.000   0.000   0.000
 -0.000   0.000  -0.000   0.000  -0.000   0.000   0.000   0.000   0.000   0.000   0.000   0.000   0.000   0.000  -0.000   0.000
 -0.000   0.000  -0.005   0.000   0.000   0.000   0.000   0.000   0.004   0.000  -0.000   0.000  -0.431   0.000  -0.000   0.000
  0.000   0.000   0.000   0.000  -0.005   0.000  -0.000   0.000  -0.000   0.000   0.004   0.000  -0.000   0.000  -0.452   0.000
 -0.000   0.000   0.000   0.000   0.000   0.000   0.000   0.000  -0.000   0.000  -0.000   0.000  -0.000   0.000   0.000   0.000
 -0.005   0.000  -0.000   0.000   0.000   0.000   0.004   0.000   0.000   0.000  -0.000   0.000  -0.000   0.000   0.000   0.000
 -0.000   0.000  -0.000   0.000  -0.000   0.000   0.000   0.000   0.000   0.000   0.000   0.000   0.000   0.000  -0.000   0.000
 -0.000   0.000  -0.000   0.000   0.000   0.000  -0.000   0.000  -0.000   0.000   0.000   0.000  -0.000   0.000  -0.000   0.000
 -0.000   0.000  -0.000   0.000   0.000   0.000  -0.000   0.000  -0.000   0.000   0.000   0.000  -0.000   0.000  -0.000   0.000
 total augmentation occupancy for first ion, spin component:           1
  1.993  -0.000   0.000  -0.020  -0.000   0.000   0.000   0.000   0.000  -0.001   0.000   0.000   0.000   0.000   0.000   0.000
 -0.000   1.993  -0.000  -0.000  -0.020  -0.000  -0.000   0.000   0.000   0.000   0.000  -0.000   0.000   0.000  -0.000  -0.000
  0.000  -0.000   1.993   0.000  -0.000  -0.020  -0.000  -0.001   0.000   0.000  -0.000   0.000   0.000   0.000   0.000   0.000
 -0.020  -0.000   0.000   0.217   0.000   0.000   0.000   0.000   0.000  -0.059  -0.000  -0.000   0.000  -0.000   0.034   0.000
 -0.000  -0.020  -0.000   0.000   0.207  -0.000  -0.056   0.000   0.000   0.000   0.000   0.029   0.000   0.000   0.000  -0.000
  0.000   0.000  -0.020  -0.000  -0.000   0.217   0.000  -0.059   0.000   0.000  -0.000   0.000   0.034  -0.000   0.000   0.000
 -0.000  -0.000  -0.000   0.000  -0.056   0.000   2.238   0.000   0.000   0.000   0.000  -1.530  -0.000  -0.000  -0.000   0.000
  0.000   0.000  -0.001   0.000   0.000  -0.059  -0.000   2.121  -0.000   0.000   0.000   0.000  -1.436   0.000  -0.000  -0.000
  0.000   0.000   0.000   0.000  -0.000  -0.000   0.000   0.000   2.479   0.000   0.000   0.000  -0.000  -1.738  -0.000   0.000
 -0.001  -0.000   0.000  -0.059  -0.000   0.000   0.000   0.000   0.000   2.121   0.000   0.000   0.000   0.000  -1.436   0.000
  0.000   0.000   0.000  -0.000   0.000   0.000   0.000  -0.000   0.000   0.000   2.297  -0.000   0.000   0.000   0.000  -1.631
  0.000  -0.000   0.000  -0.000   0.029   0.000  -1.530  -0.000   0.000   0.000   0.000   2.262  -0.000   0.000  -0.000   0.000
  0.000   0.000   0.000   0.000   0.000   0.034  -0.000  -1.436   0.000  -0.000   0.000  -0.000   2.210   0.000   0.000  -0.000
  0.000   0.000   0.000  -0.000   0.000  -0.000   0.000  -0.000  -1.738   0.000   0.000   0.000   0.000   2.204   0.000  -0.000
  0.000  -0.000   0.000   0.034  -0.000   0.000  -0.000   0.000  -0.000  -1.436   0.000   0.000   0.000   0.000   2.210  -0.000
  0.000  -0.000   0.000   0.000  -0.000   0.000  -0.000   0.000   0.000   0.000  -1.631   0.000  -0.000  -0.000  -0.000   2.168
  0.000   0.000  -0.000  -0.000   0.000  -0.000  -0.000   0.000   0.046   0.000   0.000   0.000   0.000  -0.046   0.000  -0.000
  0.000   0.000   0.000   0.000   0.000  -0.000   0.000   0.000   0.001   0.000   0.000   0.000   0.000  -0.001  -0.000   0.000
 total augmentation occupancy for first ion, spin component:           2
 -0.001   0.000   0.000  -0.006  -0.000   0.000  -0.000   0.000   0.000  -0.008   0.000  -0.000   0.000   0.000   0.009   0.000
  0.000  -0.001   0.000  -0.000  -0.005   0.000  -0.008   0.000   0.000   0.000   0.000   0.009   0.000   0.000  -0.000  -0.000
  0.000   0.000  -0.001   0.000   0.000  -0.006  -0.000  -0.008   0.000   0.000   0.000   0.000   0.009   0.000   0.000   0.000
 -0.006  -0.000   0.000  -0.009   0.000   0.000   0.000   0.000   0.000   0.054   0.000   0.000   0.000  -0.000  -0.016   0.000
 -0.000  -0.005   0.000   0.000  -0.005  -0.000   0.062   0.000   0.000  -0.000   0.000  -0.019  -0.000   0.000   0.000  -0.000
  0.000   0.000  -0.006   0.000   0.000  -0.009   0.000   0.054  -0.000   0.000  -0.000   0.000  -0.016   0.000  -0.000   0.000
 -0.000  -0.008   0.000  -0.000   0.062  -0.000   1.053   0.000   0.000   0.000  -0.000  -0.306  -0.000   0.000  -0.000   0.000
  0.000   0.000  -0.008  -0.000   0.000   0.054  -0.000   0.885   0.000   0.000  -0.000  -0.000  -0.244   0.000   0.000   0.000
  0.000   0.000   0.000   0.000   0.000  -0.000   0.000  -0.000   1.691   0.000   0.000   0.000   0.000  -0.535   0.000  -0.000
 -0.008  -0.000   0.000   0.054  -0.000   0.000  -0.000  -0.000   0.000   0.885  -0.000   0.000  -0.000  -0.000  -0.244   0.000
  0.000   0.000   0.000  -0.000  -0.000   0.000  -0.000   0.000   0.000  -0.000   1.576  -0.000  -0.000   0.000   0.000  -0.485
  0.000   0.009   0.000  -0.000  -0.019  -0.000  -0.306  -0.000   0.000   0.000   0.000  -0.147   0.000   0.000   0.000  -0.000
  0.000   0.000   0.009   0.000  -0.000  -0.016  -0.000  -0.244   0.000  -0.000   0.000   0.000  -0.160   0.000   0.000   0.000
  0.000   0.000  -0.000  -0.000   0.000   0.000   0.000   0.000  -0.535  -0.000  -0.000   0.000   0.000  -0.071   0.000   0.000
  0.009   0.000   0.000  -0.016   0.000  -0.000  -0.000  -0.000   0.000  -0.244   0.000   0.000   0.000   0.000  -0.160  -0.000
  0.000  -0.000   0.000   0.000  -0.000   0.000  -0.000  -0.000  -0.000  -0.000  -0.485  -0.000  -0.000   0.000  -0.000  -0.105
 -0.000   0.000  -0.000   0.000   0.000  -0.000   0.000  -0.000   0.033   0.000   0.000   0.000   0.000  -0.008   0.000   0.000
  0.000   0.000  -0.000   0.000   0.000  -0.000   0.000  -0.000   0.000   0.000   0.000   0.000   0.000  -0.000   0.000   0.000


------------------------ aborting loop because EDIFF is reached ----------------------------------------


 


 total charge     
 
# of ion       s       p       d       tot
------------------------------------------
    1        0.350   6.404   6.279  13.033
    2        0.350   6.404   6.279  13.033
    3        0.350   6.404   6.279  13.033
    4        0.350   6.404   6.279  13.033
    5        0.378   6.397   6.080  12.855
    6        0.378   6.397   6.080  12.855
    7        0.378   6.397   6.080  12.855
    8        0.378   6.397   6.080  12.855
    9        0.443   6.523   7.459  14.425
   10        0.443   6.523   7.459  14.425
   11        0.443   6.523   7.459  14.425
   12        0.443   6.523   7.459  14.425
   13        0.707   0.886   0.000   1.593
   14        0.707   0.886   0.000   1.593
   15        0.707   0.886   0.000   1.593
   16        0.707   0.886   0.000   1.593
--------------------------------------------------
tot          7.509  80.842  79.274 167.626
 


 magnetization (x)
 
# of ion       s       p       d       tot
------------------------------------------
    1       -0.001  -0.017   1.506   1.488
    2       -0.001  -0.017   1.506   1.488
    3       -0.001  -0.017   1.506   1.488
    4       -0.001  -0.017   1.506   1.488
    5        0.004  -0.003   2.655   2.656
    6        0.004  -0.003   2.655   2.656
    7        0.004  -0.003   2.655   2.656
    8        0.004  -0.003   2.655   2.656
    9       -0.005  -0.022   1.012   0.985
   10       -0.005  -0.022   1.012   0.985
   11       -0.005  -0.022   1.012   0.985
   12       -0.005  -0.022   1.012   0.985
   13        0.004  -0.030   0.000  -0.027
   14        0.004  -0.030   0.000  -0.027
   15        0.004  -0.030   0.000  -0.027
   16        0.004  -0.030   0.000  -0.027
--------------------------------------------------
tot          0.005  -0.287  20.692  20.410
 
    CHARGE:  cpu time    0.4600: real time    0.4590
    FORLOC:  cpu time    0.0000: real time    0.0027
    FORNL :  cpu time    1.2801: real time    1.2839
    STRESS:  cpu time    3.8962: real time    3.9115
    FORCOR:  cpu time    0.0560: real time    0.0542
    FORHAR:  cpu time    0.0080: real time    0.0081
    MIXING:  cpu time    0.0000: real time    0.0016
    OFIELD:  cpu time    0.0000: real time    0.0000

  FORCE on cell =-STRESS in cart. coord.  units (eV):
  Direction    XX          YY          ZZ          XY          YZ          ZX
  --------------------------------------------------------------------------------------
  Alpha Z  1253.00065  1253.00065  1253.00065
  Ewald   -7394.20206 -7394.20206 -7418.95422    -0.00000     0.00000     0.00000
  Hartree  2747.95328  2747.95328  2727.78621    -0.00000    -0.00000    -0.00000
  E(xc)   -1169.99692 -1169.99692 -1170.00944     0.00000    -0.00000     0.00000
  Local    1313.43893  1313.43893  1358.02702     0.00000    -0.00000     0.00000
  n-local  -218.25477  -217.77294  -218.16474    -0.83993    -1.16157    -0.44197
  augment  1694.15691  1694.15691  1694.51726     0.00000    -0.00000     0.00000
  Kinetic  1768.75787  1778.57050  1773.84335    -0.96933    -1.17712    -0.60905
  Fock        0.00000     0.00000     0.00000     0.00000     0.00000     0.00000
  -------------------------------------------------------------------------------------
  Total       0.00111     0.00111     0.04608     0.00000    -0.00000     0.00000
  in kB       0.01016     0.01016     0.42016     0.00000    -0.00000     0.00000
  external pressure =        0.15 kB  Pullay stress =        0.00 kB


 VOLUME and BASIS-vectors are now :
 -----------------------------------------------------------------------------
  energy-cutoff  :      500.00
  volume of cell :      175.73
      direct lattice vectors                 reciprocal lattice vectors
     5.582489887  0.000000000  0.000000000     0.179131538  0.000000000  0.000000000
     0.000000000  5.582489887  0.000000000     0.000000000  0.179131538  0.000000000
     0.000000000  0.000000000  5.638717208     0.000000000  0.000000000  0.177345301

  length of vectors
     5.582489887  5.582489887  5.638717208     0.179131538  0.179131538  0.177345301


 FORCES acting on ions
    electron-ion (+dipol)            ewald-force                    non-local-force                 convergence-correction
 -----------------------------------------------------------------------------------------------
   -.564E-12 0.174E-11 0.171E-11   0.171E-12 0.199E-12 -.355E-13   0.173E-17 -.260E-17 0.347E-17   0.422E-12 -.162E-12 -.206E-12
   0.408E-12 -.884E-13 0.172E-11   0.199E-12 0.142E-12 -.568E-13   0.520E-17 0.260E-17 -.173E-17   0.829E-12 0.123E-12 -.627E-12
   0.229E-11 0.852E-12 0.929E-12   0.199E-12 0.156E-12 -.568E-13   -.173E-17 -.867E-18 -.173E-17   -.238E-12 0.251E-12 -.618E-12
   0.123E-11 -.126E-12 0.205E-11   0.171E-12 0.156E-12 -.355E-13   0.173E-17 -.867E-18 0.347E-17   -.549E-12 -.171E-12 -.191E-12
   0.823E-12 0.298E-11 -.299E+02   -.210E-12 -.146E-12 0.311E+02   0.000E+00 -.108E-18 -.125E+01   0.262E-12 -.273E-12 0.183E-02
   0.248E-11 0.749E-11 -.299E+02   -.236E-12 -.177E-12 0.311E+02   0.000E+00 0.325E-18 -.125E+01   -.247E-12 -.235E-12 0.183E-02
   0.814E-12 -.182E-11 0.299E+02   -.132E-12 -.140E-12 -.311E+02   0.000E+00 0.108E-18 0.125E+01   0.246E-12 -.232E-12 -.183E-02
   0.247E-11 -.340E-11 0.299E+02   -.130E-12 -.138E-12 -.311E+02   0.000E+00 -.325E-18 0.125E+01   -.258E-12 -.282E-12 -.183E-02
   0.162E-11 0.190E-11 0.429E-14   0.142E-13 0.000E+00 -.284E-13   0.000E+00 0.867E-18 0.000E+00   -.742E-12 -.124E-12 0.726E-12
   -.526E-12 -.807E-13 -.879E-15   0.142E-13 -.142E-13 -.284E-13   0.694E-17 -.867E-18 0.000E+00   0.524E-12 -.279E-12 0.678E-12
   0.236E-11 -.507E-13 -.714E-14   0.142E-13 0.000E+00 -.142E-13   0.173E-17 -.173E-17 -.867E-18   -.209E-12 0.225E-12 0.275E-12
   0.363E-12 0.195E-11 -.283E-14   0.426E-13 0.000E+00 -.142E-13   -.173E-17 0.173E-17 -.867E-18   0.945E-12 0.245E-12 0.247E-12
   -.893E-13 -.102E-11 -.115E+02   -.736E-15 0.185E-16 0.124E+02   0.000E+00 0.000E+00 -.820E+00   0.509E-13 0.306E-13 0.398E-03
   -.913E-13 -.208E-13 0.115E+02   -.125E-14 0.341E-15 -.124E+02   -.867E-18 0.000E+00 0.820E+00   0.465E-13 0.277E-13 -.398E-03
   -.764E-13 -.136E-11 -.115E+02   0.125E-14 0.250E-15 0.124E+02   0.867E-18 0.000E+00 -.820E+00   -.659E-13 0.273E-13 0.398E-03
   -.814E-13 0.389E-11 0.115E+02   0.636E-15 -.633E-15 -.124E+02   0.434E-18 0.000E+00 0.820E+00   -.686E-13 0.299E-13 -.398E-03
 -----------------------------------------------------------------------------------------------
   0.134E-10 0.128E-10 0.123E-10   0.116E-12 0.395E-13 -.270E-12   0.143E-16 -.173E-17 -.111E-15   0.950E-12 -.798E-12 0.471E-12
 
 
 POSITION                                       TOTAL-FORCE (eV/Angst)
 -----------------------------------------------------------------------------------
      0.00000      2.79124      2.81936         0.000000      0.000000      0.000000
      0.00000      0.00000      2.81936         0.000000     -0.000000      0.000000
      2.79124      2.79124      2.81936        -0.000000      0.000000      0.000000
      2.79124      0.00000      2.81936        -0.000000      0.000000      0.000000
      1.39562      4.18687      1.43686         0.000000     -0.000000      0.001399
      4.18687      1.39562      1.43686         0.000000      0.000000      0.001399
      1.39562      1.39562      4.20186         0.000000      0.000000     -0.001399
      4.18687      4.18687      4.20186         0.000000     -0.000000     -0.001399
      2.79124      2.79124      0.00000         0.000000     -0.000000      0.000000
      0.00000      0.00000      0.00000         0.000000     -0.000000      0.000000
      2.79124      0.00000      0.00000        -0.000000     -0.000000     -0.000000
      0.00000      2.79124      0.00000         0.000000      0.000000     -0.000000
      1.39562      1.39562      1.40163         0.000000      0.000000      0.002696
      1.39562      4.18687      4.23709        -0.000000      0.000000     -0.002696
      4.18687      4.18687      1.40163         0.000000      0.000000      0.002696
      4.18687      1.39562      4.23709        -0.000000     -0.000000     -0.002696
 -----------------------------------------------------------------------------------
    total drift:                                0.000000      0.000000      0.000000


--------------------------------------------------------------------------------------------------------



  FREE ENERGIE OF THE ION-ELECTRON SYSTEM (eV)
  ---------------------------------------------------
  free  energy   TOTEN  =      -121.72214638 eV

  energy  without entropy=     -121.72332663  energy(sigma->0) =     -121.72253980
 


--------------------------------------------------------------------------------------------------------


    POTLOK:  cpu time    0.1240: real time    0.1244


--------------------------------------------------------------------------------------------------------


     LOOP+:  cpu time  226.9062: real time  227.9801
    4ORBIT:  cpu time    0.0000: real time    0.0000
 


 total charge     
 
# of ion       s       p       d       tot
------------------------------------------
    1        0.350   6.404   6.279  13.033
    2        0.350   6.404   6.279  13.033
    3        0.350   6.404   6.279  13.033
    4        0.350   6.404   6.279  13.033
    5        0.378   6.397   6.080  12.855
    6        0.378   6.397   6.080  12.855
    7        0.378   6.397   6.080  12.855
    8        0.378   6.397   6.080  12.855
    9        0.443   6.523   7.459  14.425
   10        0.443   6.523   7.459  14.425
   11        0.443   6.523   7.459  14.425
   12        0.443   6.523   7.459  14.425
   13        0.707   0.886   0.000   1.593
   14        0.707   0.886   0.000   1.593
   15        0.707   0.886   0.000   1.593
   16        0.707   0.886   0.000   1.593
--------------------------------------------------
tot          7.509  80.842  79.274 167.626
 


 magnetization (x)
 
# of ion       s       p       d       tot
------------------------------------------
    1       -0.001  -0.017   1.506   1.488
    2       -0.001  -0.017   1.506   1.488
    3       -0.001  -0.017   1.506   1.488
    4       -0.001  -0.017   1.506   1.488
    5        0.004  -0.003   2.655   2.656
    6        0.004  -0.003   2.655   2.656
    7        0.004  -0.003   2.655   2.656
    8        0.004  -0.003   2.655   2.656
    9       -0.005  -0.022   1.012   0.985
   10       -0.005  -0.022   1.012   0.985
   11       -0.005  -0.022   1.012   0.985
   12       -0.005  -0.022   1.012   0.985
   13        0.004  -0.030   0.000  -0.027
   14        0.004  -0.030   0.000  -0.027
   15        0.004  -0.030   0.000  -0.027
   16        0.004  -0.030   0.000  -0.027
--------------------------------------------------
tot          0.005  -0.287  20.692  20.410
 

 total amount of memory used by VASP MPI-rank0    49184. kBytes
=======================================================================

   base      :      30000. kBytes
   nonlr-proj:       2888. kBytes
   fftplans  :       3254. kBytes
   grid      :       2822. kBytes
   one-center:         62. kBytes
   wavefun   :      10158. kBytes
 
  
  
 General timing and accounting informations for this job:
 ========================================================
  
                  Total CPU time used (sec):      238.119
                            User time (sec):      236.735
                          System time (sec):        1.384
                         Elapsed time (sec):      240.509
  
                   Maximum memory used (kb):     1147900.
                   Average memory used (kb):           0.
  
                          Minor page faults:       287951
                          Major page faults:            0
                 Voluntary context switches:         3951
