 vasp.6.1.1 19Jun20 (build Jan 21 2021 08:43:03) complex                        
  
 executed on             LinuxIFC date 2023.04.01  02:30:05
 running on   80 total cores
 distrk:  each k-point on   80 cores,    1 groups
 distr:  one band on NCORE=  10 cores,    8 groups


--------------------------------------------------------------------------------------------------------


 INCAR:
 POTCAR:    PAW_PBE Fe_pv 02Aug2007               
 POTCAR:    PAW_PBE Co_pv 23Apr2009               
 POTCAR:      PAW_PBE In 08Apr2002                
 POTCAR:    PAW_PBE Fe_pv 02Aug2007               
   VRHFIN =Fe:  3pd7s1                                                                              
   LEXCH  = PE                                                                                      
   EATOM  =  2457.4239 eV,  180.6156 Ry                                                             
                                                                                                    
   TITEL  = PAW_PBE Fe_pv 02Aug2007                                                                 
   LULTRA =        F    use ultrasoft PP ?                                                          
   IUNSCR =        1    unscreen: 0-lin 1-nonlin 2-no                                               
   RPACOR =    1.750    partial core radius                                                         
   POMASS =   55.847; ZVAL   =   14.000    mass and valenz                                          
   RCORE  =    2.200    outmost cutoff radius                                                       
   RWIGS  =    2.200; RWIGS  =    1.164    wigner-seitz radius (au A)                               
   ENMAX  =  293.238; ENMIN  =  219.928 eV                                                          
   ICORE  =        3    local potential                                                             
   LCOR   =        T    correct aug charges                                                         
   LPAW   =        T    paw PP                                                                      
   EAUG   =  578.342                                                                                
   DEXC   =    0.000                                                                                
   RMAX   =    2.249    core radius for proj-oper                                                   
   RAUG   =    1.300    factor for augmentation sphere                                              
   RDEP   =    2.296    radius for radial grids                                                     
   RDEPT  =    1.766    core radius for aug-charge                                                  
                                                                                                    
   Atomic configuration                                                                             
    8 entries                                                                                       
     n  l   j            E        occ.                                                              
     1  0  0.50     -6993.8440   2.0000                                                             
     2  0  0.50      -814.6047   2.0000                                                             
     2  1  1.50      -693.3689   6.0000                                                             
     3  0  0.50       -89.4732   2.0000                                                             
     3  1  1.50       -55.6373   6.0000                                                             
     3  2  2.50        -3.8151   7.0000                                                             
     4  0  0.50        -4.2551   1.0000                                                             
     4  3  2.50        -1.3606   0.0000                                                             
   Description                                                                                      
     l       E           TYP  RCUT    TYP  RCUT                                                     
     1    -55.6372668     23  2.000                                                                 
     1     -5.4423304     23  2.000                                                                 
     2     -3.8151096     23  2.200                                                                 
     2     -5.1756922     23  2.200                                                                 
     0     -4.2550951     23  2.200                                                                 
     0     27.2116520     23  2.200                                                                 
     3     -1.3605826     23  2.200                                                                 
  local pseudopotential read in
  partial core-charges read in
  partial kinetic energy density read in
  atomic valenz-charges read in
  non local Contribution for L=           1  read in
    real space projection operators read in
  non local Contribution for L=           1  read in
    real space projection operators read in
  non local Contribution for L=           2  read in
    real space projection operators read in
  non local Contribution for L=           2  read in
    real space projection operators read in
  non local Contribution for L=           0  read in
    real space projection operators read in
  non local Contribution for L=           0  read in
    real space projection operators read in
    PAW grid and wavefunctions read in
 
   number of l-projection  operators is LMAX  =           6
   number of lm-projection operators is LMMAX =          18
 
 POTCAR:    PAW_PBE Co_pv 23Apr2009               
   VRHFIN =Co: 3pd7s1                                                                               
   LEXCH  = PE                                                                                      
   EATOM  =  2948.1334 eV,  216.6817 Ry                                                             
                                                                                                    
   TITEL  = PAW_PBE Co_pv 23Apr2009                                                                 
   LULTRA =        F    use ultrasoft PP ?                                                          
   IUNSCR =        1    unscreen: 0-lin 1-nonlin 2-no                                               
   RPACOR =    2.000    partial core radius                                                         
   POMASS =   58.933; ZVAL   =   15.000    mass and valenz                                          
   RCORE  =    2.300    outmost cutoff radius                                                       
   RWIGS  =    2.460; RWIGS  =    1.302    wigner-seitz radius (au A)                               
   ENMAX  =  271.042; ENMIN  =  203.281 eV                                                          
   ICORE  =        3    local potential                                                             
   LCOR   =        T    correct aug charges                                                         
   LPAW   =        T    paw PP                                                                      
   EAUG   =  543.066                                                                                
   DEXC   =    0.000                                                                                
   RMAX   =    2.360    core radius for proj-oper                                                   
   RAUG   =    1.300    factor for augmentation sphere                                              
   RDEP   =    2.393    radius for radial grids                                                     
   RDEPT  =    1.841    core radius for aug-charge                                                  
                                                                                                    
   Atomic configuration                                                                             
    8 entries                                                                                       
     n  l   j            E        occ.                                                              
     1  0  0.50     -7587.6674   2.0000                                                             
     2  0  0.50      -893.6084   2.0000                                                             
     2  1  1.50      -764.5805   6.0000                                                             
     3  0  0.50       -97.5973   2.0000                                                             
     3  1  1.50       -60.9648   6.0000                                                             
     3  2  2.50        -4.2382   8.0000                                                             
     4  0  0.50        -4.3746   1.0000                                                             
     4  3  2.50        -1.3606   0.0000                                                             
   Description                                                                                      
     l       E           TYP  RCUT    TYP  RCUT                                                     
     1    -60.9647990     23  2.000                                                                 
     1     -5.4423304     23  2.000                                                                 
     2     -4.2382362     23  2.300                                                                 
     2     -5.5988188     23  2.300                                                                 
     0     -4.3745797     23  2.300                                                                 
     0      5.7660125     23  2.300                                                                 
     3     -1.3605826     23  2.300                                                                 
  local pseudopotential read in
  partial core-charges read in
  partial kinetic energy density read in
  atomic valenz-charges read in
  non local Contribution for L=           1  read in
    real space projection operators read in
  non local Contribution for L=           1  read in
    real space projection operators read in
  non local Contribution for L=           2  read in
    real space projection operators read in
  non local Contribution for L=           2  read in
    real space projection operators read in
  non local Contribution for L=           0  read in
    real space projection operators read in
  non local Contribution for L=           0  read in
    real space projection operators read in
    PAW grid and wavefunctions read in
 
   number of l-projection  operators is LMAX  =           6
   number of lm-projection operators is LMMAX =          18
 
 POTCAR:      PAW_PBE In 08Apr2002                
   VRHFIN =In: s2p1                                                                                 
   LEXCH  = PE                                                                                      
   EATOM  =    53.7908 eV,    3.9535 Ry                                                             
                                                                                                    
   TITEL  = PAW_PBE In 08Apr2002                                                                    
   LULTRA =        F    use ultrasoft PP ?                                                          
   IUNSCR =        1    unscreen: 0-lin 1-nonlin 2-no                                               
   RPACOR =    2.400    partial core radius                                                         
   POMASS =  114.820; ZVAL   =    3.000    mass and valenz                                          
   RCORE  =    3.100    outmost cutoff radius                                                       
   RWIGS  =    3.170; RWIGS  =    1.677    wigner-seitz radius (au A)                               
   ENMAX  =   95.934; ENMIN  =   71.951 eV                                                          
   ICORE  =        3    local potential                                                             
   LCOR   =        T    correct aug charges                                                         
   LPAW   =        T    paw PP                                                                      
   EAUG   =  237.125                                                                                
   DEXC   =    0.000                                                                                
   RMAX   =    3.168    core radius for proj-oper                                                   
   RAUG   =    1.300    factor for augmentation sphere                                              
   RDEP   =    3.187    radius for radial grids                                                     
   RDEPT  =    2.711    core radius for aug-charge                                                  
                                                                                                    
   Atomic configuration                                                                             
   13 entries                                                                                       
     n  l   j            E        occ.                                                              
     1  0  0.50    -27747.9169   2.0000                                                             
     2  0  0.50     -4154.4438   2.0000                                                             
     2  1  1.50     -3728.4305   6.0000                                                             
     3  0  0.50      -788.3680   2.0000                                                             
     3  1  1.50      -648.9215   6.0000                                                             
     3  2  2.50      -432.5893  10.0000                                                             
     4  0  0.50      -119.6363   2.0000                                                             
     4  1  1.50       -78.1086   6.0000                                                             
     4  2  2.50       -18.6227  10.0000                                                             
     5  0  0.50        -8.2107   2.0000                                                             
     5  1  0.50        -2.5185   1.0000                                                             
     5  2  2.50        -1.3606   0.0000                                                             
     4  3  2.50        -2.7212   0.0000                                                             
   Description                                                                                      
     l       E           TYP  RCUT    TYP  RCUT                                                     
     0     -8.2107306     23  3.100                                                                 
     0     -6.1485975     23  3.100                                                                 
     1     -2.5184867     23  3.100                                                                 
     1      3.2427302     23  3.100                                                                 
     2     -1.3605826     23  3.100                                                                 
     3     -1.3605826     23  3.100                                                                 
  local pseudopotential read in
  partial core-charges read in
  partial kinetic energy density read in
  atomic valenz-charges read in
  non local Contribution for L=           0  read in
    real space projection operators read in
  non local Contribution for L=           0  read in
    real space projection operators read in
  non local Contribution for L=           1  read in
    real space projection operators read in
  non local Contribution for L=           1  read in
    real space projection operators read in
  non local Contribution for L=           2  read in
    real space projection operators read in
    PAW grid and wavefunctions read in
 
   number of l-projection  operators is LMAX  =           5
   number of lm-projection operators is LMMAX =          13
 
 Optimization of the real space projectors (new method)

 maximal supplied QI-value         = 17.01
 optimisation between [QCUT,QGAM] = [ 11.40, 22.79] = [ 36.36,145.44] Ry 
 Optimized for a Real-space Cutoff    1.47 Angstroem

   l    n(q)    QCUT    max X(q) W(low)/X(q) W(high)/X(q)  e(spline) 
   1     10    11.395     4.267    0.90E-04    0.11E-03    0.18E-06
   1     10    11.395     5.750    0.14E-03    0.15E-03    0.25E-06
   2      9    11.395    53.656    0.13E-03    0.36E-04    0.15E-06
   2      9    11.395    49.521    0.14E-03    0.36E-04    0.15E-06
   0     10    11.395    31.246    0.58E-04    0.17E-05    0.98E-07
   0     10    11.395    12.201    0.41E-04    0.11E-05    0.82E-07
 Optimization of the real space projectors (new method)

 maximal supplied QI-value         = 16.25
 optimisation between [QCUT,QGAM] = [ 11.38, 22.75] = [ 36.24,144.96] Ry 
 Optimized for a Real-space Cutoff    1.47 Angstroem

   l    n(q)    QCUT    max X(q) W(low)/X(q) W(high)/X(q)  e(spline) 
   1     10    11.376     4.946    0.88E-04    0.16E-03    0.15E-06
   1     10    11.376     5.991    0.13E-03    0.24E-03    0.21E-06
   2      9    11.376    46.947    0.87E-04    0.91E-04    0.20E-06
   2      9    11.376    42.928    0.91E-04    0.94E-04    0.20E-06
   0     10    11.376    68.324    0.58E-04    0.21E-04    0.82E-07
   0     10    11.376    36.926    0.52E-04    0.19E-04    0.78E-07
 Optimization of the real space projectors (new method)

 maximal supplied QI-value         = 12.09
 optimisation between [QCUT,QGAM] = [ 11.37, 22.86] = [ 36.19,146.31] Ry 
 Optimized for a Real-space Cutoff    1.66 Angstroem

   l    n(q)    QCUT    max X(q) W(low)/X(q) W(high)/X(q)  e(spline) 
   0     11    11.369   106.980    0.13E-03    0.70E-04    0.20E-05
   0     11    11.369    81.086    0.14E-03    0.77E-04    0.22E-05
   1     11    11.369    53.097    0.15E-03    0.30E-03    0.86E-06
   1     11    11.369    32.621    0.14E-03    0.28E-03    0.81E-06
   2     10    11.369     8.820    0.13E-03    0.44E-04    0.34E-06
  PAW_PBE Fe_pv 02Aug2007               :
 energy of atom  1       EATOM=-2457.4239
 kinetic energy error for atom=    0.0069 (will be added to EATOM!!)
  PAW_PBE Co_pv 23Apr2009               :
 energy of atom  2       EATOM=-2948.1334
 kinetic energy error for atom=    0.0060 (will be added to EATOM!!)
    PAW_PBE In 08Apr2002                :
 energy of atom  3       EATOM=  -53.7908
 kinetic energy error for atom=    0.0000 (will be added to EATOM!!)
 
 
 POSCAR: Heusler tetragonGa
  positions in direct lattice
  velocities in cartesian coordinates
 exchange correlation table for  LEXCH =        8
   RHO(1)=    0.500       N(1)  =     2000
   RHO(2)=  100.500       N(2)  =     4000
 


--------------------------------------------------------------------------------------------------------


 ion  position               nearest neighbor table
   1  0.500  0.500  0.500-   5 2.60   6 2.60   7 2.60   8 2.60  13 2.60  14 2.60  15 2.60  16 2.60

   2  0.000  0.000  0.500-   5 2.60   6 2.60   7 2.60   8 2.60  13 2.60  14 2.60  15 2.60  16 2.60

   3  0.500  0.500  0.000-   5 2.60   6 2.60   7 2.60   8 2.60  13 2.60  14 2.60  15 2.60  16 2.60

   4  0.000  0.000  0.000-   5 2.60   6 2.60   7 2.60   8 2.60  13 2.60  14 2.60  15 2.60  16 2.60

   5  0.250  0.250  0.750-   1 2.60   2 2.60   3 2.60   4 2.60   9 2.60  10 2.60  11 2.60  12 2.60

   6  0.250  0.750  0.250-   1 2.60   2 2.60   3 2.60   4 2.60   9 2.60  10 2.60  11 2.60  12 2.60

   7  0.750  0.250  0.250-   1 2.60   2 2.60   3 2.60   4 2.60   9 2.60  10 2.60  11 2.60  12 2.60

   8  0.750  0.750  0.750-   1 2.60   2 2.60   3 2.60   4 2.60   9 2.60  10 2.60  11 2.60  12 2.60

   9  0.500  0.000  0.000-   5 2.60   6 2.60   7 2.60   8 2.60  13 2.60  14 2.60  15 2.60  16 2.60

  10  0.000  0.500  0.000-   5 2.60   6 2.60   7 2.60   8 2.60  13 2.60  14 2.60  15 2.60  16 2.60

  11  0.500  0.000  0.500-   5 2.60   6 2.60   7 2.60   8 2.60  13 2.60  14 2.60  15 2.60  16 2.60

  12  0.000  0.500  0.500-   5 2.60   6 2.60   7 2.60   8 2.60  13 2.60  14 2.60  15 2.60  16 2.60

  13  0.250  0.250  0.250-   1 2.60   2 2.60   3 2.60   4 2.60   9 2.60  10 2.60  11 2.60  12 2.60

  14  0.750  0.250  0.750-   1 2.60   2 2.60   3 2.60   4 2.60   9 2.60  10 2.60  11 2.60  12 2.60

  15  0.250  0.750  0.750-   1 2.60   2 2.60   3 2.60   4 2.60   9 2.60  10 2.60  11 2.60  12 2.60

  16  0.750  0.750  0.250-   1 2.60   2 2.60   3 2.60   4 2.60   9 2.60  10 2.60  11 2.60  12 2.60

 
  LATTYP: Found a simple tetragonal cell.
 ALAT       =     6.0611148840
 C/A-ratio  =     0.9755912445
  
  Lattice vectors:
  
 A1 = (   6.0611148840,   0.0000000000,   0.0000000000)
 A2 = (   0.0000000000,   6.0611148840,   0.0000000000)
 A3 = (   0.0000000000,   0.0000000000,   5.9131706127)


Analysis of symmetry for initial positions (statically):
=====================================================================
 Subroutine PRICEL returns following result:
 
  LATTYP: Found a simple tetragonal cell.
 ALAT       =     4.2858554360
 C/A-ratio  =     1.3796943693
  
  Lattice vectors:
  
 A1 = (   3.0305574420,  -3.0305574420,   0.0000000000)
 A2 = (  -3.0305574420,  -3.0305574420,   0.0000000000)
 A3 = (   0.0000000000,   0.0000000000,  -5.9131706127)
 
   2 primitive cells build up your supercell.
 

 Routine SETGRP: Setting up the symmetry group for a 
 simple tetragonal supercell.


 Subroutine GETGRP returns: Found 16 space group operations
 (whereof  8 operations were pure point group operations)
 out of a pool of 16 trial point group operations.


The static configuration has the point symmetry D_2d.
 The point group associated with its full space group is D_4h.


Analysis of symmetry for dynamics (positions and initial velocities):
=====================================================================
 Subroutine PRICEL returns following result:
 
  LATTYP: Found a simple tetragonal cell.
 ALAT       =     4.2858554360
 C/A-ratio  =     1.3796943693
  
  Lattice vectors:
  
 A1 = (   3.0305574420,  -3.0305574420,   0.0000000000)
 A2 = (  -3.0305574420,  -3.0305574420,   0.0000000000)
 A3 = (   0.0000000000,   0.0000000000,  -5.9131706127)
 
   2 primitive cells build up your supercell.
 

 Routine SETGRP: Setting up the symmetry group for a 
 simple tetragonal supercell.


 Subroutine GETGRP returns: Found 16 space group operations
 (whereof  8 operations were pure point group operations)
 out of a pool of 16 trial point group operations.


The dynamic configuration has the point symmetry D_2d.
 The point group associated with its full space group is D_4h.


Analysis of structural, dynamic, and magnetic symmetry:
=====================================================================
 Subroutine PRICEL returns following result:
 
  LATTYP: Found a simple tetragonal cell.
 ALAT       =     4.2858554360
 C/A-ratio  =     1.3796943693
  
  Lattice vectors:
  
 A1 = (   3.0305574420,  -3.0305574420,   0.0000000000)
 A2 = (  -3.0305574420,  -3.0305574420,   0.0000000000)
 A3 = (   0.0000000000,   0.0000000000,  -5.9131706127)
 
   2 primitive cells build up your supercell.
 

 Routine SETGRP: Setting up the symmetry group for a 
 simple tetragonal supercell.


 Subroutine GETGRP returns: Found 16 space group operations
 (whereof  8 operations were pure point group operations)
 out of a pool of 16 trial point group operations.


The magnetic configuration has the point symmetry D_2d.
 The point group associated with its full space group is D_4h.


 Subroutine INISYM returns: Found 16 space group operations
 (whereof  8 operations are pure point group operations),
 and found     2 'primitive' translations


----------------------------------------------------------------------------------------

                                     Primitive cell                                     

  volume of cell :     108.6164

  direct lattice vectors                    reciprocal lattice vectors
     3.030557442 -3.030557442  0.000000000     0.164986148 -0.164986148  0.000000000
    -3.030557442 -3.030557442  0.000000000    -0.164986148 -0.164986148  0.000000000
     0.000000000  0.000000000 -5.913170613     0.000000000  0.000000000 -0.169114011

  length of vectors
     4.285855436  4.285855436  5.913170613     0.233325649  0.233325649  0.169114011

  position of ions in fractional coordinates (direct lattice)
     0.000000000  0.000000000  0.500000000
     0.000000000  0.000000000  0.000000000
     0.000000000  0.500000000  0.250000000
     0.500000000  0.000000000  0.750000000
     0.500000000  0.500000000  0.000000000
     0.500000000  0.500000000  0.500000000
     0.000000000  0.500000000  0.750000000
     0.500000000  0.000000000  0.250000000

  ion indices of the primitive-cell ions
   primitive index   ion index
                 1           1
                 2           3
                 3           5
                 4           6
                 5           9
                 6          11
                 7          13
                 8          14

----------------------------------------------------------------------------------------

 
 
 KPOINTS: Ni7CoMn5CrSn2                           

Automatic generation of k-mesh.
Space group operators:
 irot       det(A)        alpha          n_x          n_y          n_z        tau_x        tau_y        tau_z
    1     1.000000     0.000001     1.000000     0.000000     0.000000     0.000000     0.000000     0.000000
    2    -1.000000    90.000000     0.000000     0.000000    -1.000000     0.000000     0.000000     0.000000
    3     1.000000   180.000000     0.000000     0.000000     1.000000     0.000000     0.000000     0.000000
    4    -1.000000    90.000000     0.000000     0.000000     1.000000     0.000000     0.000000     0.000000
    5     1.000000   180.000000     0.000000     1.000000     0.000000     0.000000     0.000000     0.000000
    6    -1.000000   180.000000     0.707107     0.707107     0.000000     0.000000     0.000000     0.000000
    7     1.000000   180.000000     1.000000     0.000000     0.000000     0.000000     0.000000     0.000000
    8    -1.000000   180.000000     0.707107    -0.707107     0.000000     0.000000     0.000000     0.000000
    9    -1.000000     0.000001     1.000000     0.000000     0.000000     0.000000     0.000000     0.500000
   10     1.000000    90.000000     0.000000     0.000000    -1.000000     0.000000     0.000000     0.500000
   11    -1.000000   180.000000     0.000000     0.000000     1.000000     0.000000     0.000000     0.500000
   12     1.000000    90.000000     0.000000     0.000000     1.000000     0.000000     0.000000     0.500000
   13    -1.000000   180.000000     0.000000     1.000000     0.000000     0.000000     0.000000     0.500000
   14     1.000000   180.000000     0.707107     0.707107     0.000000     0.000000     0.000000     0.500000
   15    -1.000000   180.000000     1.000000     0.000000     0.000000     0.000000     0.000000     0.500000
   16     1.000000   180.000000     0.707107    -0.707107     0.000000     0.000000     0.000000     0.500000
 
 Subroutine IBZKPT returns following result:
 ===========================================
 
 Found     40 irreducible k-points:
 
 Following reciprocal coordinates:
            Coordinates               Weight
  0.062500  0.062500  0.062500      8.000000
  0.187500  0.062500  0.062500     16.000000
  0.312500  0.062500  0.062500     16.000000
  0.437500  0.062500  0.062500     16.000000
  0.187500  0.187500  0.062500      8.000000
  0.312500  0.187500  0.062500     16.000000
  0.437500  0.187500  0.062500     16.000000
  0.312500  0.312500  0.062500      8.000000
  0.437500  0.312500  0.062500     16.000000
  0.437500  0.437500  0.062500      8.000000
  0.062500  0.062500  0.187500      8.000000
  0.187500  0.062500  0.187500     16.000000
  0.312500  0.062500  0.187500     16.000000
  0.437500  0.062500  0.187500     16.000000
  0.187500  0.187500  0.187500      8.000000
  0.312500  0.187500  0.187500     16.000000
  0.437500  0.187500  0.187500     16.000000
  0.312500  0.312500  0.187500      8.000000
  0.437500  0.312500  0.187500     16.000000
  0.437500  0.437500  0.187500      8.000000
  0.062500  0.062500  0.312500      8.000000
  0.187500  0.062500  0.312500     16.000000
  0.312500  0.062500  0.312500     16.000000
  0.437500  0.062500  0.312500     16.000000
  0.187500  0.187500  0.312500      8.000000
  0.312500  0.187500  0.312500     16.000000
  0.437500  0.187500  0.312500     16.000000
  0.312500  0.312500  0.312500      8.000000
  0.437500  0.312500  0.312500     16.000000
  0.437500  0.437500  0.312500      8.000000
  0.062500  0.062500  0.437500      8.000000
  0.187500  0.062500  0.437500     16.000000
  0.312500  0.062500  0.437500     16.000000
  0.437500  0.062500  0.437500     16.000000
  0.187500  0.187500  0.437500      8.000000
  0.312500  0.187500  0.437500     16.000000
  0.437500  0.187500  0.437500     16.000000
  0.312500  0.312500  0.437500      8.000000
  0.437500  0.312500  0.437500     16.000000
  0.437500  0.437500  0.437500      8.000000
 
 Following cartesian coordinates:
            Coordinates               Weight
  0.062385  0.062385  0.063946      8.000000
  0.187156  0.062385  0.063946     16.000000
  0.311927  0.062385  0.063946     16.000000
  0.436698  0.062385  0.063946     16.000000
  0.187156  0.187156  0.063946      8.000000
  0.311927  0.187156  0.063946     16.000000
  0.436698  0.187156  0.063946     16.000000
  0.311927  0.311927  0.063946      8.000000
  0.436698  0.311927  0.063946     16.000000
  0.436698  0.436698  0.063946      8.000000
  0.062385  0.062385  0.191839      8.000000
  0.187156  0.062385  0.191839     16.000000
  0.311927  0.062385  0.191839     16.000000
  0.436698  0.062385  0.191839     16.000000
  0.187156  0.187156  0.191839      8.000000
  0.311927  0.187156  0.191839     16.000000
  0.436698  0.187156  0.191839     16.000000
  0.311927  0.311927  0.191839      8.000000
  0.436698  0.311927  0.191839     16.000000
  0.436698  0.436698  0.191839      8.000000
  0.062385  0.062385  0.319731      8.000000
  0.187156  0.062385  0.319731     16.000000
  0.311927  0.062385  0.319731     16.000000
  0.436698  0.062385  0.319731     16.000000
  0.187156  0.187156  0.319731      8.000000
  0.311927  0.187156  0.319731     16.000000
  0.436698  0.187156  0.319731     16.000000
  0.311927  0.311927  0.319731      8.000000
  0.436698  0.311927  0.319731     16.000000
  0.436698  0.436698  0.319731      8.000000
  0.062385  0.062385  0.447624      8.000000
  0.187156  0.062385  0.447624     16.000000
  0.311927  0.062385  0.447624     16.000000
  0.436698  0.062385  0.447624     16.000000
  0.187156  0.187156  0.447624      8.000000
  0.311927  0.187156  0.447624     16.000000
  0.436698  0.187156  0.447624     16.000000
  0.311927  0.311927  0.447624      8.000000
  0.436698  0.311927  0.447624     16.000000
  0.436698  0.436698  0.447624      8.000000
 


--------------------------------------------------------------------------------------------------------




 Dimension of arrays:
   k-points           NKPTS =     40   k-points in BZ     NKDIM =     40   number of bands    NBANDS=    128
   number of dos      NEDOS =   1500   number of ions     NIONS =     16
   non local maximal  LDIM  =      6   non local SUM 2l+1 LMDIM =     18
   total plane-waves  NPLWV = 110592
   max r-space proj   IRMAX =   9794   max aug-charges    IRDMAX= 459597
   dimension x,y,z NGX =    48 NGY =   48 NGZ =   48
   dimension x,y,z NGXF=    96 NGYF=   96 NGZF=   96
   support grid    NGXF=   192 NGYF=  192 NGZF=  192
   ions per type =               8   4   4
   NGX,Y,Z   is equivalent  to a cutoff of  13.17, 13.17, 13.49 a.u.
   NGXF,Y,Z  is equivalent  to a cutoff of  26.33, 26.33, 26.99 a.u.

 SYSTEM =  NiCoMnGa                                
 POSCAR =  Heusler tetragonGa                      

 Startparameter for this run:
   NWRITE =      2    write-flag & timer
   PREC   = accura    normal or accurate (medium, high low for compatibility)
   ISTART =      0    job   : 0-new  1-cont  2-samecut
   ICHARG =      2    charge: 1-file 2-atom 10-const
   ISPIN  =      2    spin polarized calculation?
   LNONCOLLINEAR =      F non collinear calculations
   LSORBIT =      F    spin-orbit coupling
   INIWAV =      1    electr: 0-lowe 1-rand  2-diag
   LASPH  =      F    aspherical Exc in radial PAW
   METAGGA=      F    non-selfconsistent MetaGGA calc.

 Electronic Relaxation 1
   ENCUT  =  500.0 eV  36.75 Ry    6.06 a.u.  11.05 11.05 10.78*2*pi/ulx,y,z
   ENINI  =  500.0     initial cutoff
   ENAUG  =  578.3 eV  augmentation charge cutoff
   NELM   =    160;   NELMIN=  2; NELMDL= -6     # of ELM steps 
   EDIFF  = 0.1E-05   stopping-criterion for ELM
   LREAL  =      T    real-space projection
   NLSPLINE    = F    spline interpolate recip. space projectors
   LCOMPAT=      F    compatible to vasp.4.4
   GGA_COMPAT  = T    GGA compatible to vasp.4.4-vasp.4.6
   LMAXPAW     = -100 max onsite density
   LMAXMIX     =    6 max onsite mixed and CHGCAR
   VOSKOWN=      0    Vosko Wilk Nusair interpolation
   ROPT   =   -0.00025  -0.00025  -0.00025
 Ionic relaxation
   EDIFFG = 0.1E-02   stopping-criterion for IOM
   NSW    =      0    number of steps for IOM
   NBLOCK =      1;   KBLOCK =      1    inner block; outer block 
   IBRION =     -1    ionic relax: 0-MD 1-quasi-New 2-CG
   NFREE  =      1    steps in history (QN), initial steepest desc. (CG)
   ISIF   =      3    stress and relaxation
   IWAVPR =     10    prediction:  0-non 1-charg 2-wave 3-comb
   ISYM   =      2    0-nonsym 1-usesym 2-fastsym
   LCORR  =      T    Harris-Foulkes like correction to forces

   POTIM  = 0.0050    time-step for ionic-motion
   TEIN   =    0.0    initial temperature
   TEBEG  =    0.0;   TEEND  =   0.0 temperature during run
   SMASS  =  -3.00    Nose mass-parameter (am)
   estimated Nose-frequenzy (Omega)   =  0.10E-29 period in steps = 0.13E+49 mass=  -0.840E-27a.u.
   SCALEE = 1.0000    scale energy and forces
   NPACO  =    256;   APACO  = 16.0  distance and # of slots for P.C.
   PSTRESS=    0.0 pullay stress

  Mass of Ions in am
   POMASS =  55.85 58.93114.82
  Ionic Valenz
   ZVAL   =  14.00 15.00  3.00
  Atomic Wigner-Seitz radii
   RWIGS  =   1.16  1.16  1.16
  virtual crystal weights 
   VCA    =   1.00  1.00  1.00
   NELECT =     184.0000    total number of electrons
   NUPDOWN=      -1.0000    fix difference up-down

 DOS related values:
   EMIN   =  10.00;   EMAX   =-10.00  energy-range for DOS
   EFERMI =   0.00
   ISMEAR =     1;   SIGMA  =   0.10  broadening in eV -4-tet -1-fermi 0-gaus

 Electronic relaxation 2 (details)
   IALGO  =     38    algorithm
   LDIAG  =      T    sub-space diagonalisation (order eigenvalues)
   LSUBROT=      F    optimize rotation matrix (better conditioning)
   TURBO    =      0    0=normal 1=particle mesh
   IRESTART =      0    0=no restart 2=restart with 2 vectors
   NREBOOT  =      0    no. of reboots
   NMIN     =      0    reboot dimension
   EREF     =   0.00    reference energy to select bands
   IMIX   =      4    mixing-type and parameters
     AMIX     =   0.18;   BMIX     =  0.00
     AMIX_MAG =   0.26;   BMIX_MAG =  0.01
     AMIN     =   0.10
     WC   =   100.;   INIMIX=   1;  MIXPRE=   1;  MAXMIX= -45

 Intra band minimization:
   WEIMIN = 0.0000     energy-eigenvalue tresh-hold
   EBREAK =  0.20E-08  absolut break condition
   DEPER  =   0.30     relativ break condition  

   TIME   =   0.40     timestep for ELM

  volume/ion in A,a.u.               =      13.58        91.62
  Fermi-wavevector in a.u.,A,eV,Ry     =   1.548956  2.927102 32.643959  2.399263
  Thomas-Fermi vector in A             =   2.653832
 
 Write flags
   LWAVE        =      F    write WAVECAR
   LDOWNSAMPLE  =      F    k-point downsampling of WAVECAR
   LCHARG       =      T    write CHGCAR
   LVTOT        =      F    write LOCPOT, total local potential
   LVHAR        =      F    write LOCPOT, Hartree potential only
   LELF         =      F    write electronic localiz. function (ELF)
   LORBIT       =     10    0 simple, 1 ext, 2 COOP (PROOUT), +10 PAW based schemes


 Dipole corrections
   LMONO  =      F    monopole corrections only (constant potential shift)
   LDIPOL =      F    correct potential (dipole corrections)
   IDIPOL =      0    1-x, 2-y, 3-z, 4-all directions 
   EPSILON=  1.0000000 bulk dielectric constant

 Exchange correlation treatment:
   GGA     =    --    GGA type
   LEXCH   =     8    internal setting for exchange type
   VOSKOWN=      0    Vosko Wilk Nusair interpolation
   LHFCALC =     F    Hartree Fock is set to
   LHFONE  =     F    Hartree Fock one center treatment
   AEXX    =    0.0000 exact exchange contribution

 Linear response parameters
   LEPSILON=     F    determine dielectric tensor
   LRPA    =     F    only Hartree local field effects (RPA)
   LNABLA  =     F    use nabla operator in PAW spheres
   LVEL    =     F    velocity operator in full k-point grid
   LINTERFAST=   F  fast interpolation
   KINTER  =     0    interpolate to denser k-point grid
   CSHIFT  =0.1000    complex shift for real part using Kramers Kronig
   OMEGAMAX=  -1.0    maximum frequency
   DEG_THRESHOLD= 0.2000000E-02 threshold for treating states as degnerate
   RTIME   =   -0.100 relaxation time in fs
  (WPLASMAI=    0.000 imaginary part of plasma frequency in eV, 0.658/RTIME)
   DFIELD  = 0.0000000 0.0000000 0.0000000 field for delta impulse in time
 
 Orbital magnetization related:
   ORBITALMAG=     F  switch on orbital magnetization
   LCHIMAG   =     F  perturbation theory with respect to B field
   DQ        =  0.001000  dq finite difference perturbation B field
   LLRAUG    =     F  two centre corrections for induced B field



--------------------------------------------------------------------------------------------------------


 Static calculation
 charge density and potential will be updated during run
 spin polarized calculation
 Variant of blocked Davidson
 Davidson routine will perform the subspace rotation
 perform sub-space diagonalisation
    after iterative eigenvector-optimisation
 modified Broyden-mixing scheme, WC =      100.0
 initial mixing is a Kerker type mixing with AMIX =  0.1800 and BMIX =      0.0025
 Hartree-type preconditioning will be used
 using additional bands           36
 real space projection scheme for non local part
 use partial core corrections
 calculate Harris-corrections to forces 
   (improved forces if not selfconsistent)
 use gradient corrections 
 use of overlap-Matrix (Vanderbilt PP)
 Methfessel and Paxton  Order N= 1 SIGMA  =   0.10


--------------------------------------------------------------------------------------------------------


  energy-cutoff  :      500.00
  volume of cell :      217.23
      direct lattice vectors                 reciprocal lattice vectors
     6.061114884  0.000000000  0.000000000     0.164986148  0.000000000  0.000000000
     0.000000000  6.061114884  0.000000000     0.000000000  0.164986148  0.000000000
     0.000000000  0.000000000  5.913170613     0.000000000  0.000000000  0.169114011

  length of vectors
     6.061114884  6.061114884  5.913170613     0.164986148  0.164986148  0.169114011


 
 k-points in units of 2pi/SCALE and weight: Ni7CoMn5CrSn2                           
   0.06238539  0.06238539  0.06394624       0.016
   0.18715616  0.06238539  0.06394624       0.031
   0.31192694  0.06238539  0.06394624       0.031
   0.43669771  0.06238539  0.06394624       0.031
   0.18715616  0.18715616  0.06394624       0.016
   0.31192694  0.18715616  0.06394624       0.031
   0.43669771  0.18715616  0.06394624       0.031
   0.31192694  0.31192694  0.06394624       0.016
   0.43669771  0.31192694  0.06394624       0.031
   0.43669771  0.43669771  0.06394624       0.016
   0.06238539  0.06238539  0.19183871       0.016
   0.18715616  0.06238539  0.19183871       0.031
   0.31192694  0.06238539  0.19183871       0.031
   0.43669771  0.06238539  0.19183871       0.031
   0.18715616  0.18715616  0.19183871       0.016
   0.31192694  0.18715616  0.19183871       0.031
   0.43669771  0.18715616  0.19183871       0.031
   0.31192694  0.31192694  0.19183871       0.016
   0.43669771  0.31192694  0.19183871       0.031
   0.43669771  0.43669771  0.19183871       0.016
   0.06238539  0.06238539  0.31973118       0.016
   0.18715616  0.06238539  0.31973118       0.031
   0.31192694  0.06238539  0.31973118       0.031
   0.43669771  0.06238539  0.31973118       0.031
   0.18715616  0.18715616  0.31973118       0.016
   0.31192694  0.18715616  0.31973118       0.031
   0.43669771  0.18715616  0.31973118       0.031
   0.31192694  0.31192694  0.31973118       0.016
   0.43669771  0.31192694  0.31973118       0.031
   0.43669771  0.43669771  0.31973118       0.016
   0.06238539  0.06238539  0.44762365       0.016
   0.18715616  0.06238539  0.44762365       0.031
   0.31192694  0.06238539  0.44762365       0.031
   0.43669771  0.06238539  0.44762365       0.031
   0.18715616  0.18715616  0.44762365       0.016
   0.31192694  0.18715616  0.44762365       0.031
   0.43669771  0.18715616  0.44762365       0.031
   0.31192694  0.31192694  0.44762365       0.016
   0.43669771  0.31192694  0.44762365       0.031
   0.43669771  0.43669771  0.44762365       0.016
 
 k-points in reciprocal lattice and weights: Ni7CoMn5CrSn2                           
   0.06250000  0.06250000  0.06250000       0.016
   0.18750000  0.06250000  0.06250000       0.031
   0.31250000  0.06250000  0.06250000       0.031
   0.43750000  0.06250000  0.06250000       0.031
   0.18750000  0.18750000  0.06250000       0.016
   0.31250000  0.18750000  0.06250000       0.031
   0.43750000  0.18750000  0.06250000       0.031
   0.31250000  0.31250000  0.06250000       0.016
   0.43750000  0.31250000  0.06250000       0.031
   0.43750000  0.43750000  0.06250000       0.016
   0.06250000  0.06250000  0.18750000       0.016
   0.18750000  0.06250000  0.18750000       0.031
   0.31250000  0.06250000  0.18750000       0.031
   0.43750000  0.06250000  0.18750000       0.031
   0.18750000  0.18750000  0.18750000       0.016
   0.31250000  0.18750000  0.18750000       0.031
   0.43750000  0.18750000  0.18750000       0.031
   0.31250000  0.31250000  0.18750000       0.016
   0.43750000  0.31250000  0.18750000       0.031
   0.43750000  0.43750000  0.18750000       0.016
   0.06250000  0.06250000  0.31250000       0.016
   0.18750000  0.06250000  0.31250000       0.031
   0.31250000  0.06250000  0.31250000       0.031
   0.43750000  0.06250000  0.31250000       0.031
   0.18750000  0.18750000  0.31250000       0.016
   0.31250000  0.18750000  0.31250000       0.031
   0.43750000  0.18750000  0.31250000       0.031
   0.31250000  0.31250000  0.31250000       0.016
   0.43750000  0.31250000  0.31250000       0.031
   0.43750000  0.43750000  0.31250000       0.016
   0.06250000  0.06250000  0.43750000       0.016
   0.18750000  0.06250000  0.43750000       0.031
   0.31250000  0.06250000  0.43750000       0.031
   0.43750000  0.06250000  0.43750000       0.031
   0.18750000  0.18750000  0.43750000       0.016
   0.31250000  0.18750000  0.43750000       0.031
   0.43750000  0.18750000  0.43750000       0.031
   0.31250000  0.31250000  0.43750000       0.016
   0.43750000  0.31250000  0.43750000       0.031
   0.43750000  0.43750000  0.43750000       0.016
 
 position of ions in fractional coordinates (direct lattice) 
   0.50000000  0.50000000  0.50000000
   0.00000000  0.00000000  0.50000000
   0.50000000  0.50000000  0.00000000
   0.00000000  0.00000000  0.00000000
   0.25000000  0.25000000  0.75000000
   0.25000000  0.75000000  0.25000000
   0.75000000  0.25000000  0.25000000
   0.75000000  0.75000000  0.75000000
   0.50000000  0.00000000  0.00000000
   0.00000000  0.50000000  0.00000000
   0.50000000  0.00000000  0.50000000
   0.00000000  0.50000000  0.50000000
   0.25000000  0.25000000  0.25000000
   0.75000000  0.25000000  0.75000000
   0.25000000  0.75000000  0.75000000
   0.75000000  0.75000000  0.25000000
 
 position of ions in cartesian coordinates  (Angst):
   3.03055744  3.03055744  2.95658531
   0.00000000  0.00000000  2.95658531
   3.03055744  3.03055744  0.00000000
   0.00000000  0.00000000  0.00000000
   1.51527872  1.51527872  4.43487796
   1.51527872  4.54583616  1.47829265
   4.54583616  1.51527872  1.47829265
   4.54583616  4.54583616  4.43487796
   3.03055744  0.00000000  0.00000000
   0.00000000  3.03055744  0.00000000
   3.03055744  0.00000000  2.95658531
   0.00000000  3.03055744  2.95658531
   1.51527872  1.51527872  1.47829265
   4.54583616  1.51527872  4.43487796
   1.51527872  4.54583616  4.43487796
   4.54583616  4.54583616  1.47829265
 


--------------------------------------------------------------------------------------------------------


 k-point   1 :   0.0625 0.0625 0.0625  plane waves:    5506
 k-point   2 :   0.1875 0.0625 0.0625  plane waves:    5521
 k-point   3 :   0.3125 0.0625 0.0625  plane waves:    5519
 k-point   4 :   0.4375 0.0625 0.0625  plane waves:    5510
 k-point   5 :   0.1875 0.1875 0.0625  plane waves:    5515
 k-point   6 :   0.3125 0.1875 0.0625  plane waves:    5516
 k-point   7 :   0.4375 0.1875 0.0625  plane waves:    5513
 k-point   8 :   0.3125 0.3125 0.0625  plane waves:    5509
 k-point   9 :   0.4375 0.3125 0.0625  plane waves:    5521
 k-point  10 :   0.4375 0.4375 0.0625  plane waves:    5524
 k-point  11 :   0.0625 0.0625 0.1875  plane waves:    5503
 k-point  12 :   0.1875 0.0625 0.1875  plane waves:    5515
 k-point  13 :   0.3125 0.0625 0.1875  plane waves:    5505
 k-point  14 :   0.4375 0.0625 0.1875  plane waves:    5516
 k-point  15 :   0.1875 0.1875 0.1875  plane waves:    5510
 k-point  16 :   0.3125 0.1875 0.1875  plane waves:    5508
 k-point  17 :   0.4375 0.1875 0.1875  plane waves:    5512
 k-point  18 :   0.3125 0.3125 0.1875  plane waves:    5510
 k-point  19 :   0.4375 0.3125 0.1875  plane waves:    5515
 k-point  20 :   0.4375 0.4375 0.1875  plane waves:    5522
 k-point  21 :   0.0625 0.0625 0.3125  plane waves:    5503
 k-point  22 :   0.1875 0.0625 0.3125  plane waves:    5501
 k-point  23 :   0.3125 0.0625 0.3125  plane waves:    5509
 k-point  24 :   0.4375 0.0625 0.3125  plane waves:    5514
 k-point  25 :   0.1875 0.1875 0.3125  plane waves:    5514
 k-point  26 :   0.3125 0.1875 0.3125  plane waves:    5517
 k-point  27 :   0.4375 0.1875 0.3125  plane waves:    5525
 k-point  28 :   0.3125 0.3125 0.3125  plane waves:    5521
 k-point  29 :   0.4375 0.3125 0.3125  plane waves:    5527
 k-point  30 :   0.4375 0.4375 0.3125  plane waves:    5527
 k-point  31 :   0.0625 0.0625 0.4375  plane waves:    5507
 k-point  32 :   0.1875 0.0625 0.4375  plane waves:    5505
 k-point  33 :   0.3125 0.0625 0.4375  plane waves:    5497
 k-point  34 :   0.4375 0.0625 0.4375  plane waves:    5503
 k-point  35 :   0.1875 0.1875 0.4375  plane waves:    5524
 k-point  36 :   0.3125 0.1875 0.4375  plane waves:    5513
 k-point  37 :   0.4375 0.1875 0.4375  plane waves:    5520
 k-point  38 :   0.3125 0.3125 0.4375  plane waves:    5542
 k-point  39 :   0.4375 0.3125 0.4375  plane waves:    5543
 k-point  40 :   0.4375 0.4375 0.4375  plane waves:    5538

 maximum and minimum number of plane-waves per node :       578      532

 maximum number of plane-waves:      5543
 maximum index in each direction: 
   IXMAX=   10   IYMAX=   10   IZMAX=   10
   IXMIN=  -11   IYMIN=  -11   IZMIN=  -11


 real space projection operators:
  total allocation   :      15069.53 KBytes
  max/ min on nodes  :       1594.44       1318.59


 parallel 3D FFT for wavefunctions:
    minimum data exchange during FFTs selected (reduces bandwidth)
 parallel 3D FFT for charge:
    minimum data exchange during FFTs selected (reduces bandwidth)


 total amount of memory used by VASP MPI-rank0    55003. kBytes
=======================================================================

   base      :      30000. kBytes
   nonlr-proj:       4624. kBytes
   fftplans  :       4343. kBytes
   grid      :       3686. kBytes
   one-center:         62. kBytes
   wavefun   :      12288. kBytes
 
     INWAV:  cpu time    0.0000: real time    0.0000
 Broyden mixing: mesh for mixing (old mesh)
   NGX = 23   NGY = 23   NGZ = 21
  (NGX  = 96   NGY  = 96   NGZ  = 96)
  gives a total of  11109 points

 initial charge density was supplied:
 charge density of overlapping atoms calculated
 number of electron     184.0000000 magnetization      23.2000000
 keeping initial charge density in first step


--------------------------------------------------------------------------------------------------------


 Maximum index for non-local projection operator         1011
 Maximum index for augmentation-charges         6303 (set IRDMAX)


--------------------------------------------------------------------------------------------------------


 First call to EWALD:  gamma=   0.295
 Maximum number of real-space cells 3x 3x 3
 Maximum number of reciprocal cells 3x 3x 3

    FEWALD:  cpu time    0.0000: real time    0.0015


--------------------------------------- Iteration      1(   1)  ---------------------------------------


    POTLOK:  cpu time    0.1280: real time    0.1914
    SETDIJ:  cpu time    0.3360: real time    0.3372
     EDDAV:  cpu time   11.7927: real time   11.8320
       DOS:  cpu time    0.0040: real time    0.0067
    --------------------------------------------
      LOOP:  cpu time   12.2608: real time   12.3674

 eigenvalue-minimisations  : 21040
 total energy-change (2. order) : 0.2536754E+04  (-0.9197142E+04)
 number of electron     184.0000000 magnetization      23.2000000
 augmentation part      184.0000000 magnetization      23.2000000

 Free energy of the ion-electron system (eV)
  ---------------------------------------------------
  alpha Z        PSCENC =       959.94782708
  Ewald energy   TEWEN  =    -20167.96471976
  -Hartree energ DENC   =     -9703.28171160
  -exchange      EXHF   =         0.00000000
  -V(xc)+E(xc)   XCENC  =       713.61316217
  PAW double counting   =     25759.85178810   -27033.53014219
  entropy T*S    EENTRO =         0.00027281
  eigenvalues    EBANDS =       341.10873602
  atomic energy  EATOM  =     31667.00873210
  Solvation  Ediel_sol  =         0.00000000
  ---------------------------------------------------
  free energy    TOTEN  =      2536.75394472 eV

  energy without entropy =     2536.75367191  energy(sigma->0) =     2536.75385378


--------------------------------------------------------------------------------------------------------




--------------------------------------- Iteration      1(   2)  ---------------------------------------


     EDDAV:  cpu time   11.5007: real time   11.5358
       DOS:  cpu time    0.0080: real time    0.0075
    --------------------------------------------
      LOOP:  cpu time   11.5087: real time   11.5433

 eigenvalue-minimisations  : 20480
 total energy-change (2. order) :-0.2314225E+04  (-0.2218459E+04)
 number of electron     184.0000000 magnetization      23.2000000
 augmentation part      184.0000000 magnetization      23.2000000

 Free energy of the ion-electron system (eV)
  ---------------------------------------------------
  alpha Z        PSCENC =       959.94782708
  Ewald energy   TEWEN  =    -20167.96471976
  -Hartree energ DENC   =     -9703.28171160
  -exchange      EXHF   =         0.00000000
  -V(xc)+E(xc)   XCENC  =       713.61316217
  PAW double counting   =     25759.85178810   -27033.53014219
  entropy T*S    EENTRO =         0.00188550
  eigenvalues    EBANDS =     -1973.11789164
  atomic energy  EATOM  =     31667.00873210
  Solvation  Ediel_sol  =         0.00000000
  ---------------------------------------------------
  free energy    TOTEN  =       222.52892975 eV

  energy without entropy =      222.52704425  energy(sigma->0) =      222.52830125


--------------------------------------------------------------------------------------------------------




--------------------------------------- Iteration      1(   3)  ---------------------------------------


     EDDAV:  cpu time   11.7647: real time   11.8002
       DOS:  cpu time    0.0040: real time    0.0075
    --------------------------------------------
      LOOP:  cpu time   11.7687: real time   11.8078

 eigenvalue-minimisations  : 21128
 total energy-change (2. order) :-0.3167818E+03  (-0.2749642E+03)
 number of electron     184.0000000 magnetization      23.2000000
 augmentation part      184.0000000 magnetization      23.2000000

 Free energy of the ion-electron system (eV)
  ---------------------------------------------------
  alpha Z        PSCENC =       959.94782708
  Ewald energy   TEWEN  =    -20167.96471976
  -Hartree energ DENC   =     -9703.28171160
  -exchange      EXHF   =         0.00000000
  -V(xc)+E(xc)   XCENC  =       713.61316217
  PAW double counting   =     25759.85178810   -27033.53014219
  entropy T*S    EENTRO =         0.00104539
  eigenvalues    EBANDS =     -2289.89882055
  atomic energy  EATOM  =     31667.00873210
  Solvation  Ediel_sol  =         0.00000000
  ---------------------------------------------------
  free energy    TOTEN  =       -94.25283928 eV

  energy without entropy =      -94.25388466  energy(sigma->0) =      -94.25318774


--------------------------------------------------------------------------------------------------------




--------------------------------------- Iteration      1(   4)  ---------------------------------------


     EDDAV:  cpu time   12.2448: real time   12.2823
       DOS:  cpu time    0.0080: real time    0.0079
    --------------------------------------------
      LOOP:  cpu time   12.2528: real time   12.2902

 eigenvalue-minimisations  : 22232
 total energy-change (2. order) :-0.1990164E+02  (-0.1949524E+02)
 number of electron     184.0000000 magnetization      23.2000000
 augmentation part      184.0000000 magnetization      23.2000000

 Free energy of the ion-electron system (eV)
  ---------------------------------------------------
  alpha Z        PSCENC =       959.94782708
  Ewald energy   TEWEN  =    -20167.96471976
  -Hartree energ DENC   =     -9703.28171160
  -exchange      EXHF   =         0.00000000
  -V(xc)+E(xc)   XCENC  =       713.61316217
  PAW double counting   =     25759.85178810   -27033.53014219
  entropy T*S    EENTRO =        -0.00184117
  eigenvalues    EBANDS =     -2309.79757452
  atomic energy  EATOM  =     31667.00873210
  Solvation  Ediel_sol  =         0.00000000
  ---------------------------------------------------
  free energy    TOTEN  =      -114.15447981 eV

  energy without entropy =     -114.15263863  energy(sigma->0) =     -114.15386608


--------------------------------------------------------------------------------------------------------




--------------------------------------- Iteration      1(   5)  ---------------------------------------


     EDDAV:  cpu time   12.4728: real time   12.5102
       DOS:  cpu time    0.0080: real time    0.0077
    --------------------------------------------
      LOOP:  cpu time   12.4808: real time   12.5178

 eigenvalue-minimisations  : 22752
 total energy-change (2. order) :-0.4009834E+00  (-0.4005604E+00)
 number of electron     184.0000000 magnetization      23.2000000
 augmentation part      184.0000000 magnetization      23.2000000

 Free energy of the ion-electron system (eV)
  ---------------------------------------------------
  alpha Z        PSCENC =       959.94782708
  Ewald energy   TEWEN  =    -20167.96471976
  -Hartree energ DENC   =     -9703.28171160
  -exchange      EXHF   =         0.00000000
  -V(xc)+E(xc)   XCENC  =       713.61316217
  PAW double counting   =     25759.85178810   -27033.53014219
  entropy T*S    EENTRO =        -0.00198314
  eigenvalues    EBANDS =     -2310.19841599
  atomic energy  EATOM  =     31667.00873210
  Solvation  Ediel_sol  =         0.00000000
  ---------------------------------------------------
  free energy    TOTEN  =      -114.55546323 eV

  energy without entropy =     -114.55348009  energy(sigma->0) =     -114.55480219


--------------------------------------------------------------------------------------------------------




--------------------------------------- Iteration      1(   6)  ---------------------------------------


     EDDAV:  cpu time   12.1968: real time   12.2354
       DOS:  cpu time    0.0080: real time    0.0076
    CHARGE:  cpu time    0.5520: real time    0.5548
    MIXING:  cpu time    0.0040: real time    0.0034
    --------------------------------------------
      LOOP:  cpu time   12.7608: real time   12.8012

 eigenvalue-minimisations  : 22192
 total energy-change (2. order) :-0.1009818E-01  (-0.1009800E-01)
 number of electron     184.0000007 magnetization      23.0695232
 augmentation part       97.4604498 magnetization      17.0244455

 Broyden mixing:
  rms(total) = 0.36596E+01    rms(broyden)= 0.36586E+01
  rms(prec ) = 0.54674E+01
  weight for this iteration     100.00

 Free energy of the ion-electron system (eV)
  ---------------------------------------------------
  alpha Z        PSCENC =       959.94782708
  Ewald energy   TEWEN  =    -20167.96471976
  -Hartree energ DENC   =     -9703.28171160
  -exchange      EXHF   =         0.00000000
  -V(xc)+E(xc)   XCENC  =       713.61316217
  PAW double counting   =     25759.85178810   -27033.53014219
  entropy T*S    EENTRO =        -0.00198373
  eigenvalues    EBANDS =     -2310.20851358
  atomic energy  EATOM  =     31667.00873210
  Solvation  Ediel_sol  =         0.00000000
  ---------------------------------------------------
  free energy    TOTEN  =      -114.56556142 eV

  energy without entropy =     -114.56357769  energy(sigma->0) =     -114.56490017


--------------------------------------------------------------------------------------------------------




--------------------------------------- Iteration      1(   7)  ---------------------------------------


    POTLOK:  cpu time    0.0760: real time    0.0783
    SETDIJ:  cpu time    0.2760: real time    0.2752
     EDDAV:  cpu time   12.0408: real time   12.0809
       DOS:  cpu time    0.0080: real time    0.0077
    CHARGE:  cpu time    0.5520: real time    0.5510
    MIXING:  cpu time    0.0040: real time    0.0051
    --------------------------------------------
      LOOP:  cpu time   12.9568: real time   12.9982

 eigenvalue-minimisations  : 21776
 total energy-change (2. order) : 0.1111951E+02  (-0.3303084E+01)
 number of electron     184.0000007 magnetization      23.1600130
 augmentation part      103.4916124 magnetization      17.3913485

 Broyden mixing:
  rms(total) = 0.27187E+01    rms(broyden)= 0.27185E+01
  rms(prec ) = 0.40673E+01
  weight for this iteration     100.00

 eigenvalues of (default mixing * dielectric matrix)
  average eigenvalue GAMMA=   0.6850
  0.6850

 Free energy of the ion-electron system (eV)
  ---------------------------------------------------
  alpha Z        PSCENC =       959.94782708
  Ewald energy   TEWEN  =    -20167.96471976
  -Hartree energ DENC   =     -9424.00829485
  -exchange      EXHF   =         0.00000000
  -V(xc)+E(xc)   XCENC  =       702.89804964
  PAW double counting   =     25951.72771806   -27199.89128463
  entropy T*S    EENTRO =         0.00028214
  eigenvalues    EBANDS =     -2593.16436503
  atomic energy  EATOM  =     31667.00873210
  Solvation  Ediel_sol  =         0.00000000
  ---------------------------------------------------
  free energy    TOTEN  =      -103.44605526 eV

  energy without entropy =     -103.44633740  energy(sigma->0) =     -103.44614930


--------------------------------------------------------------------------------------------------------




--------------------------------------- Iteration      1(   8)  ---------------------------------------


    POTLOK:  cpu time    0.0760: real time    0.0772
    SETDIJ:  cpu time    0.2760: real time    0.2767
     EDDAV:  cpu time   12.0928: real time   12.1292
       DOS:  cpu time    0.0080: real time    0.0080
    CHARGE:  cpu time    0.5680: real time    0.5712
    MIXING:  cpu time    0.0040: real time    0.0037
    --------------------------------------------
      LOOP:  cpu time   13.0248: real time   13.0660

 eigenvalue-minimisations  : 21880
 total energy-change (2. order) :-0.3021046E+01  (-0.1349196E+01)
 number of electron     184.0000007 magnetization      22.7361197
 augmentation part      104.7735770 magnetization      18.4239337

 Broyden mixing:
  rms(total) = 0.35970E+01    rms(broyden)= 0.35966E+01
  rms(prec ) = 0.61913E+01
  weight for this iteration     100.00

 eigenvalues of (default mixing * dielectric matrix)
  average eigenvalue GAMMA=   0.7538
  1.2432  0.2645

 Free energy of the ion-electron system (eV)
  ---------------------------------------------------
  alpha Z        PSCENC =       959.94782708
  Ewald energy   TEWEN  =    -20167.96471976
  -Hartree energ DENC   =     -9393.45044260
  -exchange      EXHF   =         0.00000000
  -V(xc)+E(xc)   XCENC  =       701.79976403
  PAW double counting   =     26247.18255338   -27495.77827770
  entropy T*S    EENTRO =        -0.01185314
  eigenvalues    EBANDS =     -2625.20068508
  atomic energy  EATOM  =     31667.00873210
  Solvation  Ediel_sol  =         0.00000000
  ---------------------------------------------------
  free energy    TOTEN  =      -106.46710168 eV

  energy without entropy =     -106.45524854  energy(sigma->0) =     -106.46315063


--------------------------------------------------------------------------------------------------------




--------------------------------------- Iteration      1(   9)  ---------------------------------------


    POTLOK:  cpu time    0.0760: real time    0.0782
    SETDIJ:  cpu time    0.2800: real time    0.2790
     EDDAV:  cpu time   11.9847: real time   12.0250
       DOS:  cpu time    0.0080: real time    0.0077
    CHARGE:  cpu time    0.5640: real time    0.5637
    MIXING:  cpu time    0.0000: real time    0.0025
    --------------------------------------------
      LOOP:  cpu time   12.9128: real time   12.9561

 eigenvalue-minimisations  : 21632
 total energy-change (2. order) : 0.4490309E+01  (-0.4051910E+00)
 number of electron     184.0000007 magnetization      22.7963676
 augmentation part      104.7909445 magnetization      17.3710970

 Broyden mixing:
  rms(total) = 0.14963E+01    rms(broyden)= 0.14959E+01
  rms(prec ) = 0.17719E+01
  weight for this iteration     100.00

 eigenvalues of (default mixing * dielectric matrix)
  average eigenvalue GAMMA=   0.7374
  1.4093  0.5643  0.2386

 Free energy of the ion-electron system (eV)
  ---------------------------------------------------
  alpha Z        PSCENC =       959.94782708
  Ewald energy   TEWEN  =    -20167.96471976
  -Hartree energ DENC   =     -9371.54565600
  -exchange      EXHF   =         0.00000000
  -V(xc)+E(xc)   XCENC  =       701.12191863
  PAW double counting   =     26621.00824504   -27874.33177421
  entropy T*S    EENTRO =        -0.00352706
  eigenvalues    EBANDS =     -2637.21783877
  atomic energy  EATOM  =     31667.00873210
  Solvation  Ediel_sol  =         0.00000000
  ---------------------------------------------------
  free energy    TOTEN  =      -101.97679296 eV

  energy without entropy =     -101.97326589  energy(sigma->0) =     -101.97561727


--------------------------------------------------------------------------------------------------------




--------------------------------------- Iteration      1(  10)  ---------------------------------------


    POTLOK:  cpu time    0.0800: real time    0.0778
    SETDIJ:  cpu time    0.2800: real time    0.2809
     EDDAV:  cpu time   12.3048: real time   12.3443
       DOS:  cpu time    0.0080: real time    0.0078
    CHARGE:  cpu time    0.5560: real time    0.5592
    MIXING:  cpu time    0.0040: real time    0.0032
    --------------------------------------------
      LOOP:  cpu time   13.2328: real time   13.2731

 eigenvalue-minimisations  : 22400
 total energy-change (2. order) :-0.7068181E-01  (-0.8141366E-01)
 number of electron     184.0000007 magnetization      22.9980141
 augmentation part      104.5332363 magnetization      17.8938348

 Broyden mixing:
  rms(total) = 0.13989E+01    rms(broyden)= 0.13988E+01
  rms(prec ) = 0.16629E+01
  weight for this iteration     100.00

 eigenvalues of (default mixing * dielectric matrix)
  average eigenvalue GAMMA=   0.8397
  1.9622  0.8849  0.2558  0.2558

 Free energy of the ion-electron system (eV)
  ---------------------------------------------------
  alpha Z        PSCENC =       959.94782708
  Ewald energy   TEWEN  =    -20167.96471976
  -Hartree energ DENC   =     -9370.04414332
  -exchange      EXHF   =         0.00000000
  -V(xc)+E(xc)   XCENC  =       701.24873410
  PAW double counting   =     26839.81720443   -28097.42094855
  entropy T*S    EENTRO =        -0.00206504
  eigenvalues    EBANDS =     -2634.63809581
  atomic energy  EATOM  =     31667.00873210
  Solvation  Ediel_sol  =         0.00000000
  ---------------------------------------------------
  free energy    TOTEN  =      -102.04747477 eV

  energy without entropy =     -102.04540973  energy(sigma->0) =     -102.04678642


--------------------------------------------------------------------------------------------------------




--------------------------------------- Iteration      1(  11)  ---------------------------------------


    POTLOK:  cpu time    0.0760: real time    0.0769
    SETDIJ:  cpu time    0.2800: real time    0.2803
     EDDAV:  cpu time   12.2088: real time   12.2500
       DOS:  cpu time    0.0080: real time    0.0080
    CHARGE:  cpu time    0.5640: real time    0.5664
    MIXING:  cpu time    0.0040: real time    0.0035
    --------------------------------------------
      LOOP:  cpu time   13.1408: real time   13.1850

 eigenvalue-minimisations  : 22248
 total energy-change (2. order) :-0.5463864E-02  (-0.4391224E-01)
 number of electron     184.0000007 magnetization      23.5083445
 augmentation part      104.6710847 magnetization      18.3550424

 Broyden mixing:
  rms(total) = 0.90046E+00    rms(broyden)= 0.90045E+00
  rms(prec ) = 0.98956E+00
  weight for this iteration     100.00

 eigenvalues of (default mixing * dielectric matrix)
  average eigenvalue GAMMA=   1.5039
  4.8283  1.1089  1.1089  0.2567  0.2168

 Free energy of the ion-electron system (eV)
  ---------------------------------------------------
  alpha Z        PSCENC =       959.94782708
  Ewald energy   TEWEN  =    -20167.96471976
  -Hartree energ DENC   =     -9357.28218368
  -exchange      EXHF   =         0.00000000
  -V(xc)+E(xc)   XCENC  =       701.38975688
  PAW double counting   =     27573.57322364   -28840.84334955
  entropy T*S    EENTRO =        -0.00375448
  eigenvalues    EBANDS =     -2637.87847086
  atomic energy  EATOM  =     31667.00873210
  Solvation  Ediel_sol  =         0.00000000
  ---------------------------------------------------
  free energy    TOTEN  =      -102.05293863 eV

  energy without entropy =     -102.04918416  energy(sigma->0) =     -102.05168714


--------------------------------------------------------------------------------------------------------




--------------------------------------- Iteration      1(  12)  ---------------------------------------


    POTLOK:  cpu time    0.0760: real time    0.0769
    SETDIJ:  cpu time    0.2800: real time    0.2817
     EDDAV:  cpu time   12.7448: real time   12.7844
       DOS:  cpu time    0.0080: real time    0.0077
    CHARGE:  cpu time    0.5600: real time    0.5645
    MIXING:  cpu time    0.0080: real time    0.0054
    --------------------------------------------
      LOOP:  cpu time   13.6769: real time   13.7206

 eigenvalue-minimisations  : 23416
 total energy-change (2. order) :-0.1011547E+00  (-0.4692850E-01)
 number of electron     184.0000007 magnetization      23.8469060
 augmentation part      104.5235608 magnetization      18.9780761

 Broyden mixing:
  rms(total) = 0.31613E+00    rms(broyden)= 0.31611E+00
  rms(prec ) = 0.33329E+00
  weight for this iteration     100.00

 eigenvalues of (default mixing * dielectric matrix)
  average eigenvalue GAMMA=   1.6076
  4.4574  2.6433  1.1451  0.9273  0.2556  0.2168

 Free energy of the ion-electron system (eV)
  ---------------------------------------------------
  alpha Z        PSCENC =       959.94782708
  Ewald energy   TEWEN  =    -20167.96471976
  -Hartree energ DENC   =     -9340.20690779
  -exchange      EXHF   =         0.00000000
  -V(xc)+E(xc)   XCENC  =       702.01677363
  PAW double counting   =     28928.66538824   -30213.57905609
  entropy T*S    EENTRO =        -0.00186609
  eigenvalues    EBANDS =     -2638.04026468
  atomic energy  EATOM  =     31667.00873210
  Solvation  Ediel_sol  =         0.00000000
  ---------------------------------------------------
  free energy    TOTEN  =      -102.15409335 eV

  energy without entropy =     -102.15222726  energy(sigma->0) =     -102.15347132


--------------------------------------------------------------------------------------------------------




--------------------------------------- Iteration      1(  13)  ---------------------------------------


    POTLOK:  cpu time    0.0760: real time    0.0769
    SETDIJ:  cpu time    0.2840: real time    0.2866
     EDDAV:  cpu time   11.9928: real time   12.0290
       DOS:  cpu time    0.0080: real time    0.0081
    CHARGE:  cpu time    0.5640: real time    0.5665
    MIXING:  cpu time    0.0040: real time    0.0036
    --------------------------------------------
      LOOP:  cpu time   12.9288: real time   12.9706

 eigenvalue-minimisations  : 21664
 total energy-change (2. order) :-0.1225369E-01  (-0.6929546E-02)
 number of electron     184.0000007 magnetization      24.3120536
 augmentation part      104.6029203 magnetization      19.4659036

 Broyden mixing:
  rms(total) = 0.20483E+00    rms(broyden)= 0.20482E+00
  rms(prec ) = 0.20891E+00
  weight for this iteration     100.00

 eigenvalues of (default mixing * dielectric matrix)
  average eigenvalue GAMMA=   1.9447
  5.0867  5.0867  1.0475  1.0475  0.8722  0.2557  0.2168

 Free energy of the ion-electron system (eV)
  ---------------------------------------------------
  alpha Z        PSCENC =       959.94782708
  Ewald energy   TEWEN  =    -20167.96471976
  -Hartree energ DENC   =     -9336.13560719
  -exchange      EXHF   =         0.00000000
  -V(xc)+E(xc)   XCENC  =       702.12917124
  PAW double counting   =     28984.48874855   -30270.68347464
  entropy T*S    EENTRO =        -0.00058983
  eigenvalues    EBANDS =     -2640.95643459
  atomic energy  EATOM  =     31667.00873210
  Solvation  Ediel_sol  =         0.00000000
  ---------------------------------------------------
  free energy    TOTEN  =      -102.16634704 eV

  energy without entropy =     -102.16575721  energy(sigma->0) =     -102.16615043


--------------------------------------------------------------------------------------------------------




--------------------------------------- Iteration      1(  14)  ---------------------------------------


    POTLOK:  cpu time    0.0760: real time    0.0762
    SETDIJ:  cpu time    0.2840: real time    0.2833
     EDDAV:  cpu time   12.1608: real time   12.1995
       DOS:  cpu time    0.0080: real time    0.0078
    CHARGE:  cpu time    0.5640: real time    0.5677
    MIXING:  cpu time    0.0040: real time    0.0052
    --------------------------------------------
      LOOP:  cpu time   13.0968: real time   13.1396

 eigenvalue-minimisations  : 22056
 total energy-change (2. order) :-0.1253479E-01  (-0.2992788E-02)
 number of electron     184.0000007 magnetization      24.3744930
 augmentation part      104.5501443 magnetization      19.5594707

 Broyden mixing:
  rms(total) = 0.59889E-01    rms(broyden)= 0.59875E-01
  rms(prec ) = 0.66252E-01
  weight for this iteration     100.00

 eigenvalues of (default mixing * dielectric matrix)
  average eigenvalue GAMMA=   1.9464
  6.3520  4.1306  1.5818  1.0745  1.0745  0.8852  0.2557  0.2168

 Free energy of the ion-electron system (eV)
  ---------------------------------------------------
  alpha Z        PSCENC =       959.94782708
  Ewald energy   TEWEN  =    -20167.96471976
  -Hartree energ DENC   =     -9334.50724342
  -exchange      EXHF   =         0.00000000
  -V(xc)+E(xc)   XCENC  =       702.52671739
  PAW double counting   =     29168.95401360   -30458.83794599
  entropy T*S    EENTRO =         0.00096219
  eigenvalues    EBANDS =     -2639.30722503
  atomic energy  EATOM  =     31667.00873210
  Solvation  Ediel_sol  =         0.00000000
  ---------------------------------------------------
  free energy    TOTEN  =      -102.17888183 eV

  energy without entropy =     -102.17984402  energy(sigma->0) =     -102.17920256


--------------------------------------------------------------------------------------------------------




--------------------------------------- Iteration      1(  15)  ---------------------------------------


    POTLOK:  cpu time    0.0760: real time    0.0763
    SETDIJ:  cpu time    0.2840: real time    0.2848
     EDDAV:  cpu time   11.9887: real time   12.0266
       DOS:  cpu time    0.0040: real time    0.0075
    CHARGE:  cpu time    0.5800: real time    0.5798
    MIXING:  cpu time    0.0040: real time    0.0039
    --------------------------------------------
      LOOP:  cpu time   12.9368: real time   12.9789

 eigenvalue-minimisations  : 21656
 total energy-change (2. order) :-0.5414701E-03  (-0.3376273E-03)
 number of electron     184.0000007 magnetization      24.4252156
 augmentation part      104.5554945 magnetization      19.6234020

 Broyden mixing:
  rms(total) = 0.36157E-01    rms(broyden)= 0.36155E-01
  rms(prec ) = 0.39175E-01
  weight for this iteration     100.00

 eigenvalues of (default mixing * dielectric matrix)
  average eigenvalue GAMMA=   2.1607
  6.0181  4.4607  4.4607  0.2557  0.2168  1.0772  1.0398  1.0398  0.8771

 Free energy of the ion-electron system (eV)
  ---------------------------------------------------
  alpha Z        PSCENC =       959.94782708
  Ewald energy   TEWEN  =    -20167.96471976
  -Hartree energ DENC   =     -9333.19694609
  -exchange      EXHF   =         0.00000000
  -V(xc)+E(xc)   XCENC  =       702.56410558
  PAW double counting   =     29246.78770960   -30537.49857777
  entropy T*S    EENTRO =         0.00132577
  eigenvalues    EBANDS =     -2639.82887982
  atomic energy  EATOM  =     31667.00873210
  Solvation  Ediel_sol  =         0.00000000
  ---------------------------------------------------
  free energy    TOTEN  =      -102.17942330 eV

  energy without entropy =     -102.18074907  energy(sigma->0) =     -102.17986522


--------------------------------------------------------------------------------------------------------




--------------------------------------- Iteration      1(  16)  ---------------------------------------


    POTLOK:  cpu time    0.0760: real time    0.0761
    SETDIJ:  cpu time    0.2840: real time    0.2872
     EDDAV:  cpu time   12.0368: real time   12.0731
       DOS:  cpu time    0.0080: real time    0.0079
    CHARGE:  cpu time    0.5640: real time    0.5682
    MIXING:  cpu time    0.0040: real time    0.0040
    --------------------------------------------
      LOOP:  cpu time   12.9728: real time   13.0165

 eigenvalue-minimisations  : 21792
 total energy-change (2. order) :-0.1323576E-03  (-0.1015031E-03)
 number of electron     184.0000007 magnetization      24.4807769
 augmentation part      104.5485301 magnetization      19.6743803

 Broyden mixing:
  rms(total) = 0.21414E-01    rms(broyden)= 0.21413E-01
  rms(prec ) = 0.25056E-01
  weight for this iteration     100.00

 eigenvalues of (default mixing * dielectric matrix)
  average eigenvalue GAMMA=   2.1760
  7.0510  4.4661  4.4661  0.2557  0.2168  1.1274  1.1274  1.0848  1.0848  0.8799

 Free energy of the ion-electron system (eV)
  ---------------------------------------------------
  alpha Z        PSCENC =       959.94782708
  Ewald energy   TEWEN  =    -20167.96471976
  -Hartree energ DENC   =     -9333.58820359
  -exchange      EXHF   =         0.00000000
  -V(xc)+E(xc)   XCENC  =       702.57420398
  PAW double counting   =     29223.74572834   -30514.11676147
  entropy T*S    EENTRO =         0.00156527
  eigenvalues    EBANDS =     -2639.78792760
  atomic energy  EATOM  =     31667.00873210
  Solvation  Ediel_sol  =         0.00000000
  ---------------------------------------------------
  free energy    TOTEN  =      -102.17955565 eV

  energy without entropy =     -102.18112092  energy(sigma->0) =     -102.18007741


--------------------------------------------------------------------------------------------------------




--------------------------------------- Iteration      1(  17)  ---------------------------------------


    POTLOK:  cpu time    0.0800: real time    0.0766
    SETDIJ:  cpu time    0.2760: real time    0.2806
     EDDAV:  cpu time   12.2648: real time   12.3035
       DOS:  cpu time    0.0080: real time    0.0077
    CHARGE:  cpu time    0.5640: real time    0.5655
    MIXING:  cpu time    0.0040: real time    0.0047
    --------------------------------------------
      LOOP:  cpu time   13.1968: real time   13.2387

 eigenvalue-minimisations  : 22240
 total energy-change (2. order) :-0.7081606E-04  (-0.1984563E-04)
 number of electron     184.0000007 magnetization      24.4987896
 augmentation part      104.5491678 magnetization      19.6938484

 Broyden mixing:
  rms(total) = 0.10875E-01    rms(broyden)= 0.10873E-01
  rms(prec ) = 0.12870E-01
  weight for this iteration     100.00

 eigenvalues of (default mixing * dielectric matrix)
  average eigenvalue GAMMA=   2.3131
  6.9278  5.4849  3.9535  3.4641  0.2557  0.2168  1.0991  1.0991  1.0326  1.0326
  0.8779

 Free energy of the ion-electron system (eV)
  ---------------------------------------------------
  alpha Z        PSCENC =       959.94782708
  Ewald energy   TEWEN  =    -20167.96471976
  -Hartree energ DENC   =     -9333.41594833
  -exchange      EXHF   =         0.00000000
  -V(xc)+E(xc)   XCENC  =       702.59812146
  PAW double counting   =     29222.61687714   -30513.06750504
  entropy T*S    EENTRO =         0.00170533
  eigenvalues    EBANDS =     -2639.90471643
  atomic energy  EATOM  =     31667.00873210
  Solvation  Ediel_sol  =         0.00000000
  ---------------------------------------------------
  free energy    TOTEN  =      -102.17962647 eV

  energy without entropy =     -102.18133180  energy(sigma->0) =     -102.18019491


--------------------------------------------------------------------------------------------------------




--------------------------------------- Iteration      1(  18)  ---------------------------------------


    POTLOK:  cpu time    0.0800: real time    0.0771
    SETDIJ:  cpu time    0.2800: real time    0.2813
     EDDAV:  cpu time   12.3408: real time   12.3803
       DOS:  cpu time    0.0080: real time    0.0077
    CHARGE:  cpu time    0.5720: real time    0.5734
    MIXING:  cpu time    0.0000: real time    0.0016
    --------------------------------------------
      LOOP:  cpu time   13.2808: real time   13.3214

 eigenvalue-minimisations  : 22368
 total energy-change (2. order) : 0.3206720E-04  (-0.1018748E-04)
[...]
 -0.000   0.000  -0.005   0.000  -0.000   0.000   0.000   0.000   0.004   0.000   0.000   0.000  -3.148   0.000  -0.000   0.000
 -0.000   0.000  -0.000   0.000  -0.005   0.000   0.000   0.000   0.000   0.000   0.004   0.000  -0.000   0.000  -3.219   0.000
  0.000   0.000   0.000   0.000   0.000   0.000  -0.000   0.000  -0.000   0.000  -0.000   0.000   0.000   0.000  -0.000   0.000
 -0.005   0.000  -0.000   0.000  -0.000   0.000   0.004   0.000   0.000   0.000   0.000   0.000  -0.000   0.000  -0.000   0.000
  0.000   0.000   0.000   0.000  -0.000   0.000  -0.000   0.000  -0.000   0.000   0.000   0.000   0.000   0.000   0.000   0.000
  0.000   0.000   0.000   0.000   0.000   0.000   0.000   0.000   0.000   0.000   0.000   0.000   0.000   0.000   0.000   0.000
  0.000   0.000   0.000   0.000   0.000   0.000   0.000   0.000   0.000   0.000   0.000   0.000   0.000   0.000   0.000   0.000
 pseudopotential strength for first ion, spin component:           2
-43.690   0.000  -0.000   0.000  -0.000   0.000   7.048   0.000   0.000   0.000   0.000   0.000  -0.000   0.000  -0.000   0.000
 -0.000   0.000 -43.700   0.000  -0.000   0.000   0.000   0.000   7.051   0.000   0.000   0.000   0.014   0.000  -0.000   0.000
 -0.000   0.000  -0.000   0.000 -43.690   0.000   0.000   0.000   0.000   0.000   7.048   0.000  -0.000   0.000   0.014   0.000
  7.048   0.000   0.000   0.000   0.000   0.000   5.818   0.000   0.000   0.000   0.000   0.000   0.000   0.000   0.000   0.000
  0.000   0.000   7.051   0.000   0.000   0.000   0.000   0.000   5.816   0.000   0.000   0.000  -0.005   0.000   0.000   0.000
  0.000   0.000   0.000   0.000   7.048   0.000   0.000   0.000   0.000   0.000   5.818   0.000   0.000   0.000  -0.005   0.000
 -0.000   0.000   0.014   0.000  -0.000   0.000   0.000   0.000  -0.005   0.000   0.000   0.000  -1.106   0.000   0.000   0.000
 -0.000   0.000  -0.000   0.000   0.014   0.000   0.000   0.000   0.000   0.000  -0.005   0.000   0.000   0.000  -1.070   0.000
  0.000   0.000  -0.000   0.000   0.000   0.000  -0.000   0.000   0.000   0.000  -0.000   0.000   0.000   0.000  -0.000   0.000
  0.014   0.000  -0.000   0.000  -0.000   0.000  -0.005   0.000   0.000   0.000   0.000   0.000   0.000   0.000  -0.000   0.000
  0.000   0.000   0.000   0.000  -0.000   0.000  -0.000   0.000  -0.000   0.000   0.000   0.000   0.000   0.000   0.000   0.000
 -0.000   0.000   0.013   0.000  -0.000   0.000   0.000   0.000  -0.005   0.000   0.000   0.000  -1.637   0.000   0.000   0.000
 -0.000   0.000  -0.000   0.000   0.013   0.000   0.000   0.000   0.000   0.000  -0.005   0.000   0.000   0.000  -1.602   0.000
  0.000   0.000  -0.000   0.000   0.000   0.000  -0.000   0.000   0.000   0.000  -0.000   0.000   0.000   0.000  -0.000   0.000
  0.013   0.000  -0.000   0.000  -0.000   0.000  -0.005   0.000   0.000   0.000   0.000   0.000   0.000   0.000  -0.000   0.000
  0.000   0.000   0.000   0.000  -0.000   0.000  -0.000   0.000  -0.000   0.000   0.000   0.000   0.000   0.000   0.000   0.000
  0.000   0.000   0.000   0.000   0.000   0.000   0.000   0.000   0.000   0.000   0.000   0.000   0.000   0.000   0.000   0.000
  0.000   0.000   0.000   0.000   0.000   0.000   0.000   0.000   0.000   0.000   0.000   0.000   0.000   0.000   0.000   0.000
 total augmentation occupancy for first ion, spin component:           1
  1.994   0.000   0.000  -0.020   0.000   0.000   0.000   0.000   0.000   0.004   0.000   0.000   0.000   0.000  -0.004   0.000
  0.000   1.994   0.000   0.000  -0.021   0.000   0.004  -0.000   0.000  -0.000  -0.000  -0.004   0.000   0.000   0.000   0.000
  0.000   0.000   1.994   0.000   0.000  -0.020  -0.000   0.004   0.000   0.000  -0.000   0.000  -0.004  -0.000  -0.000   0.000
 -0.020   0.000   0.000   0.157   0.000  -0.000   0.000  -0.000   0.000   0.023   0.000   0.000   0.000  -0.000  -0.001   0.000
  0.000  -0.021   0.000   0.000   0.167  -0.000   0.028  -0.000   0.000   0.000  -0.000  -0.001  -0.000   0.000  -0.000  -0.000
  0.000   0.000  -0.020  -0.000  -0.000   0.157  -0.000   0.023   0.000   0.000   0.000   0.000  -0.001  -0.000   0.000  -0.000
 -0.000   0.004  -0.000   0.000   0.028   0.000   2.005   0.000  -0.000   0.000   0.000  -0.933   0.000   0.000   0.000   0.000
  0.000   0.000   0.004  -0.000   0.000   0.023   0.000   2.070  -0.000   0.000   0.000   0.000  -1.014  -0.000   0.000  -0.000
  0.000   0.000   0.000  -0.000  -0.000   0.000   0.000   0.000   2.330   0.000   0.000   0.000   0.000  -1.171   0.000  -0.000
  0.004   0.000   0.000   0.023  -0.000   0.000  -0.000  -0.000   0.000   2.070   0.000   0.000   0.000   0.000  -1.014  -0.000
  0.000  -0.000  -0.000   0.000  -0.000   0.000   0.000   0.000   0.000   0.000   2.367   0.000   0.000   0.000   0.000  -1.200
  0.000  -0.004   0.000  -0.000  -0.001   0.000  -0.933  -0.000   0.000  -0.000   0.000   1.289  -0.000   0.000   0.000  -0.000
  0.000   0.000  -0.004  -0.000   0.000  -0.001   0.000  -1.014  -0.000  -0.000   0.000  -0.000   1.312  -0.000  -0.000  -0.000
  0.000   0.000  -0.000   0.000   0.000   0.000   0.000   0.000  -1.171   0.000   0.000   0.000  -0.000   1.338   0.000  -0.000
 -0.004   0.000  -0.000  -0.001   0.000  -0.000   0.000   0.000   0.000  -1.014   0.000   0.000   0.000   0.000   1.312  -0.000
  0.000  -0.000   0.000   0.000  -0.000  -0.000  -0.000  -0.000   0.000  -0.000  -1.200  -0.000  -0.000   0.000   0.000   1.320
 -0.000   0.000  -0.000   0.000   0.000   0.000   0.000   0.000  -0.020  -0.000   0.000   0.000   0.000   0.035  -0.000   0.000
  0.000   0.000  -0.000   0.000   0.000   0.000   0.000   0.000   0.000   0.000   0.000   0.000   0.000  -0.000  -0.000   0.000
 total augmentation occupancy for first ion, spin component:           2
 -0.002  -0.000   0.000  -0.008  -0.000   0.000  -0.000   0.000   0.000   0.007   0.000   0.000  -0.000   0.000  -0.007   0.000
 -0.000  -0.002   0.000  -0.000  -0.008  -0.000   0.007   0.000   0.000   0.000  -0.000  -0.007   0.000  -0.000   0.000   0.000
  0.000   0.000  -0.002   0.000  -0.000  -0.008   0.000   0.007   0.000   0.000  -0.000   0.000  -0.007   0.000  -0.000   0.000
 -0.008  -0.000   0.000  -0.004  -0.000   0.000  -0.000  -0.000   0.000  -0.047   0.000  -0.000   0.000   0.000   0.013   0.000
 -0.000  -0.008  -0.000  -0.000  -0.011   0.000  -0.046   0.000  -0.000   0.000   0.000   0.009  -0.000   0.000   0.000  -0.000
  0.000  -0.000  -0.008   0.000  -0.000  -0.004   0.000  -0.047   0.000  -0.000   0.000   0.000   0.013   0.000   0.000   0.000
 -0.000   0.007  -0.000   0.000  -0.046  -0.000   1.407   0.000   0.000   0.000   0.000  -0.423   0.000  -0.000   0.000  -0.000
  0.000   0.000   0.007  -0.000  -0.000  -0.047  -0.000   1.581   0.000  -0.000   0.000   0.000  -0.467   0.000  -0.000   0.000
  0.000   0.000  -0.000   0.000  -0.000   0.000   0.000   0.000   1.971   0.000   0.000   0.000   0.000  -0.674   0.000   0.000
  0.007   0.000   0.000  -0.047   0.000  -0.000  -0.000  -0.000   0.000   1.581   0.000   0.000   0.000  -0.000  -0.467   0.000
  0.000   0.000  -0.000   0.000   0.000  -0.000   0.000   0.000   0.000   0.000   2.003  -0.000   0.000   0.000   0.000  -0.663
  0.000  -0.007   0.000  -0.000   0.009   0.000  -0.423   0.000   0.000  -0.000   0.000  -0.118  -0.000   0.000   0.000   0.000
 -0.000   0.000  -0.007   0.000   0.000   0.013  -0.000  -0.467  -0.000   0.000  -0.000   0.000  -0.107   0.000  -0.000   0.000
  0.000   0.000   0.000   0.000   0.000  -0.000   0.000   0.000  -0.674   0.000   0.000   0.000   0.000  -0.020  -0.000   0.000
 -0.007   0.000  -0.000   0.013   0.000  -0.000   0.000   0.000   0.000  -0.467  -0.000  -0.000   0.000   0.000  -0.107  -0.000
  0.000   0.000  -0.000   0.000   0.000   0.000  -0.000   0.000   0.000   0.000  -0.663   0.000   0.000   0.000  -0.000  -0.015
  0.000   0.000  -0.000   0.000   0.000  -0.000  -0.000   0.000  -0.015  -0.000   0.000   0.000  -0.000  -0.015  -0.000   0.000
  0.000   0.000   0.000   0.000   0.000   0.000   0.000  -0.000   0.000   0.000   0.000   0.000   0.000   0.000   0.000   0.000


------------------------ aborting loop because EDIFF is reached ----------------------------------------


 


 total charge     
 
# of ion       s       p       d       tot
------------------------------------------
    1        0.317   6.298   6.138  12.753
    2        0.317   6.298   6.138  12.753
    3        0.317   6.298   6.138  12.753
    4        0.317   6.298   6.138  12.753
    5        0.340   6.297   6.012  12.650
    6        0.340   6.297   6.012  12.650
    7        0.340   6.297   6.012  12.650
    8        0.340   6.297   6.012  12.650
    9        0.396   6.385   7.366  14.147
   10        0.396   6.385   7.366  14.147
   11        0.396   6.385   7.366  14.147
   12        0.396   6.385   7.366  14.147
   13        1.272   1.872   0.340   3.484
   14        1.272   1.872   0.340   3.484
   15        1.272   1.872   0.340   3.484
   16        1.272   1.872   0.340   3.484
--------------------------------------------------
tot          9.303  83.409  79.423 172.135
 


 magnetization (x)
 
# of ion       s       p       d       tot
------------------------------------------
    1        0.005  -0.015   2.348   2.338
    2        0.005  -0.015   2.348   2.338
    3        0.005  -0.015   2.348   2.338
    4        0.005  -0.015   2.348   2.338
    5        0.001  -0.013   2.739   2.727
    6        0.001  -0.013   2.739   2.727
    7        0.001  -0.013   2.739   2.727
    8        0.001  -0.013   2.739   2.727
    9       -0.006  -0.031   1.324   1.287
   10       -0.006  -0.031   1.324   1.287
   11       -0.006  -0.031   1.324   1.287
   12       -0.006  -0.031   1.324   1.287
   13       -0.018  -0.145  -0.017  -0.180
   14       -0.018  -0.145  -0.017  -0.180
   15       -0.018  -0.145  -0.017  -0.180
   16       -0.018  -0.145  -0.017  -0.180
--------------------------------------------------
tot         -0.071  -0.817  25.577  24.690
 
    CHARGE:  cpu time    0.7200: real time    0.7489
    FORLOC:  cpu time    0.0040: real time    0.0047
    FORNL :  cpu time    3.0002: real time    3.0102
    STRESS:  cpu time    9.2246: real time    9.2570
    FORCOR:  cpu time    0.0720: real time    0.0705
    FORHAR:  cpu time    0.0080: real time    0.0110
    MIXING:  cpu time    0.0040: real time    0.0018
    OFIELD:  cpu time    0.0000: real time    0.0000

  FORCE on cell =-STRESS in cart. coord.  units (eV):
  Direction    XX          YY          ZZ          XY          YZ          ZX
  --------------------------------------------------------------------------------------
  Alpha Z   959.94783   959.94783   959.94783
  Ewald   -6738.13365 -6738.13365 -6691.75024     0.00000     0.00000     0.00000
  Hartree  3099.30757  3099.30757  3134.79590    -0.00000     0.00000    -0.00000
  E(xc)   -1171.91248 -1171.91248 -1171.94400     0.00000     0.00000    -0.00000
  Local     700.14896   700.14896   619.76409     0.00000    -0.00000     0.00000
  n-local  -239.41897  -236.17175  -236.23838    -0.41536    -0.84962     0.04808
  augment  1688.11862  1688.11862  1686.51901     0.00000     0.00000     0.00000
  Kinetic  1697.60649  1703.08184  1698.90638    -0.11837    -1.18881    -0.88420
  Fock        0.00000     0.00000     0.00000     0.00000     0.00000     0.00000
  -------------------------------------------------------------------------------------
  Total       0.02566     0.02566     0.00059     0.00000    -0.00000     0.00000
  in kB       0.18928     0.18928     0.00439     0.00000    -0.00000     0.00000
  external pressure =        0.13 kB  Pullay stress =        0.00 kB


 VOLUME and BASIS-vectors are now :
 -----------------------------------------------------------------------------
  energy-cutoff  :      500.00
  volume of cell :      217.23
      direct lattice vectors                 reciprocal lattice vectors
     6.061114884  0.000000000  0.000000000     0.164986148  0.000000000  0.000000000
     0.000000000  6.061114884  0.000000000     0.000000000  0.164986148  0.000000000
     0.000000000  0.000000000  5.913170613     0.000000000  0.000000000  0.169114011

  length of vectors
     6.061114884  6.061114884  5.913170613     0.164986148  0.164986148  0.169114011


 FORCES acting on ions
    electron-ion (+dipol)            ewald-force                    non-local-force                 convergence-correction
 -----------------------------------------------------------------------------------------------
   0.263E-11 0.100E-10 -.512E-10   0.163E-12 0.711E-13 0.142E-13   0.217E-18 -.542E-18 -.434E-18   0.116E-12 -.303E-12 -.489E-13
   0.825E-12 -.583E-13 -.590E-10   0.185E-12 0.639E-13 0.142E-13   0.651E-18 -.163E-17 -.434E-18   0.391E-12 -.379E-12 -.293E-13
   0.740E-12 0.190E-10 0.606E-10   0.497E-13 0.128E-12 -.284E-13   0.217E-18 0.108E-17 0.867E-18   -.435E-12 -.177E-12 0.154E-13
   -.107E-11 -.184E-13 0.606E-10   0.426E-13 0.121E-12 -.284E-13   0.217E-18 0.217E-17 0.867E-18   -.121E-12 -.241E-12 0.334E-13
   0.828E-12 -.113E-11 0.212E-11   -.112E-12 -.116E-12 0.876E-13   0.307E-24 0.569E-24 0.207E-23   -.133E-12 0.234E-12 -.196E-12
   0.121E-11 0.215E-11 -.138E-11   -.140E-12 -.294E-13 0.864E-13   0.414E-24 -.207E-24 0.114E-23   -.196E-12 0.410E-12 0.181E-12
   0.293E-11 0.695E-12 0.395E-12   -.139E-12 -.309E-13 0.864E-13   -.414E-24 0.103E-24 0.414E-24   0.162E-12 0.272E-12 0.188E-12
   0.236E-11 -.147E-10 -.145E-10   -.111E-12 -.115E-12 0.876E-13   -.414E-24 -.246E-24 -.620E-24   0.182E-12 0.455E-12 -.202E-12
   0.143E-11 -.347E-13 0.294E-10   0.782E-13 -.142E-13 -.426E-13   0.000E+00 0.108E-17 0.000E+00   0.105E-12 -.366E-12 -.545E-14
   -.618E-12 0.206E-11 0.293E-10   0.782E-13 0.142E-13 -.426E-13   -.867E-18 0.108E-17 0.000E+00   0.399E-12 -.310E-12 0.349E-13
   0.241E-11 -.998E-14 -.102E-10   -.568E-13 -.426E-13 -.639E-13   0.000E+00 -.108E-17 0.000E+00   -.418E-12 -.209E-12 0.197E-14
   0.358E-12 0.203E-11 -.276E-10   0.711E-14 -.142E-13 -.568E-13   0.000E+00 -.108E-17 0.000E+00   -.148E-12 -.112E-12 -.337E-14
   -.269E-14 -.291E-12 -.305E-12   0.213E-13 -.145E-15 -.144E-13   0.000E+00 -.414E-24 0.620E-24   -.334E-13 -.290E-13 0.357E-13
   0.149E-13 -.178E-11 -.116E-11   -.701E-14 -.144E-13 -.700E-14   0.000E+00 -.129E-25 0.000E+00   0.285E-13 -.299E-13 -.348E-13
   0.924E-13 0.210E-12 0.248E-12   -.722E-14 -.141E-13 -.700E-14   0.103E-24 -.103E-24 -.207E-23   -.362E-13 0.635E-14 -.349E-13
   -.448E-13 -.126E-11 -.188E-11   0.213E-13 0.129E-15 -.144E-13   -.103E-24 0.103E-24 -.124E-23   0.326E-13 0.487E-14 0.364E-13
 -----------------------------------------------------------------------------------------------
   0.141E-10 0.168E-10 0.154E-10   0.736E-13 0.713E-14 0.708E-13   0.434E-18 0.108E-17 0.867E-18   -.104E-12 -.775E-12 -.281E-13
 
 
 POSITION                                       TOTAL-FORCE (eV/Angst)
 -----------------------------------------------------------------------------------
      3.03056      3.03056      2.95659         0.000000     -0.000000     -0.000000
      0.00000      0.00000      2.95659        -0.000000     -0.000000      0.000000
      3.03056      3.03056      0.00000         0.000000      0.000000     -0.000000
      0.00000      0.00000      0.00000        -0.000000      0.000000     -0.000000
      1.51528      1.51528      4.43488        -0.000000     -0.000000     -0.000000
      1.51528      4.54584      1.47829        -0.000000     -0.000000     -0.000000
      4.54584      1.51528      1.47829        -0.000000     -0.000000     -0.000000
      4.54584      4.54584      4.43488        -0.000000     -0.000000     -0.000000
      3.03056      0.00000      0.00000        -0.000000      0.000000     -0.000000
      0.00000      3.03056      0.00000        -0.000000      0.000000     -0.000000
      3.03056      0.00000      2.95659         0.000000     -0.000000     -0.000000
      0.00000      3.03056      2.95659        -0.000000      0.000000     -0.000000
      1.51528      1.51528      1.47829        -0.000000      0.000000     -0.000000
      4.54584      1.51528      4.43488        -0.000000      0.000000     -0.000000
      1.51528      4.54584      4.43488        -0.000000     -0.000000     -0.000000
      4.54584      4.54584      1.47829         0.000000      0.000000     -0.000000
 -----------------------------------------------------------------------------------
    total drift:                                0.000000      0.000000      0.000000


--------------------------------------------------------------------------------------------------------



  FREE ENERGIE OF THE ION-ELECTRON SYSTEM (eV)
  ---------------------------------------------------
  free  energy   TOTEN  =      -102.17959926 eV

  energy  without entropy=     -102.18133672  energy(sigma->0) =     -102.18017841
 


--------------------------------------------------------------------------------------------------------


    POTLOK:  cpu time    0.3600: real time    0.3632


--------------------------------------------------------------------------------------------------------


     LOOP+:  cpu time  278.1534: real time  279.2080
    4ORBIT:  cpu time    0.0000: real time    0.0000
 


 total charge     
 
# of ion       s       p       d       tot
------------------------------------------
    1        0.317   6.298   6.138  12.753
    2        0.317   6.298   6.138  12.753
    3        0.317   6.298   6.138  12.753
    4        0.317   6.298   6.138  12.753
    5        0.340   6.297   6.012  12.650
    6        0.340   6.297   6.012  12.650
    7        0.340   6.297   6.012  12.650
    8        0.340   6.297   6.012  12.650
    9        0.396   6.385   7.366  14.147
   10        0.396   6.385   7.366  14.147
   11        0.396   6.385   7.366  14.147
   12        0.396   6.385   7.366  14.147
   13        1.272   1.872   0.340   3.484
   14        1.272   1.872   0.340   3.484
   15        1.272   1.872   0.340   3.484
   16        1.272   1.872   0.340   3.484
--------------------------------------------------
tot          9.303  83.409  79.423 172.135
 


 magnetization (x)
 
# of ion       s       p       d       tot
------------------------------------------
    1        0.005  -0.015   2.348   2.338
    2        0.005  -0.015   2.348   2.338
    3        0.005  -0.015   2.348   2.338
    4        0.005  -0.015   2.348   2.338
    5        0.001  -0.013   2.739   2.727
    6        0.001  -0.013   2.739   2.727
    7        0.001  -0.013   2.739   2.727
    8        0.001  -0.013   2.739   2.727
    9       -0.006  -0.031   1.324   1.287
   10       -0.006  -0.031   1.324   1.287
   11       -0.006  -0.031   1.324   1.287
   12       -0.006  -0.031   1.324   1.287
   13       -0.018  -0.145  -0.017  -0.180
   14       -0.018  -0.145  -0.017  -0.180
   15       -0.018  -0.145  -0.017  -0.180
   16       -0.018  -0.145  -0.017  -0.180
--------------------------------------------------
tot         -0.071  -0.817  25.577  24.690
 

 total amount of memory used by VASP MPI-rank0    55003. kBytes
=======================================================================

   base      :      30000. kBytes
   nonlr-proj:       4624. kBytes
   fftplans  :       4343. kBytes
   grid      :       3686. kBytes
   one-center:         62. kBytes
   wavefun   :      12288. kBytes
 
  
  
 General timing and accounting informations for this job:
 ========================================================
  
                  Total CPU time used (sec):      290.678
                            User time (sec):      288.510
                          System time (sec):        2.168
                         Elapsed time (sec):      293.343
  
                   Maximum memory used (kb):     1050852.
                   Average memory used (kb):           0.
  
                          Minor page faults:       497621
                          Major page faults:            0
                 Voluntary context switches:         4993
