 vasp.6.2.0 18Jan21 (build Feb 24 2021 14:57:03) complex                        
  
 executed on             LinuxIFC date 2023.06.13  13:37:07
 running on   24 total cores
 distrk:  each k-point on   24 cores,    1 groups
 distr:  one band on NCORE=   6 cores,    4 groups


--------------------------------------------------------------------------------------------------------


 INCAR:
   SYSTEM = NiCoMnGa
   LCHARG = .TRUE.
   LWAVE = .FALSE.
   ICHARG = 2
   IBRION = 2
   ISIF = 3
   PREC = Accurate
   ENCUT = 500
   LREAL = A
   POTIM = 0.01
   EDIFF = 1e-6
   ISMEAR = 1
   SIGMA = 0.1
   ISPIN = 2
   LORBIT = 10
   ISYM = 2
   RWIGS = 8*1.164 4*1.302 4*1.217
   MAGMOM = 8*2.3 4*1.2 4*0
   NSW = 0
   NEDOS = 1500
   GGA_COMPAT = .TRUE.
   LMAXMIX = 6
   NELMDL = -6
   NELM = 160
   ADDGRID = .TRUE.
   NPAR = 4
   NCORE = 6
   AMIX = 0.18
   AMIX_MAG = 0.26
   BMIX = 0.0025
   BMIX_MAG = 0.005
   EDIFFG = -5E-3

 POTCAR:    PAW_PBE Fe_pv 02Aug2007               
 POTCAR:    PAW_PBE Co_pv 23Apr2009               
 POTCAR:     PAW_PBE Al 04Jan2001                 
 POTCAR:    PAW_PBE Fe_pv 02Aug2007               
   VRHFIN =Fe:  3pd7s1                                                                              
   LEXCH  = PE                                                                                      
   EATOM  =  2457.4239 eV,  180.6156 Ry                                                             
                                                                                                    
   TITEL  = PAW_PBE Fe_pv 02Aug2007                                                                 
   LULTRA =        F    use ultrasoft PP ?                                                          
   IUNSCR =        1    unscreen: 0-lin 1-nonlin 2-no                                               
   RPACOR =    1.750    partial core radius                                                         
   POMASS =   55.847; ZVAL   =   14.000    mass and valenz                                          
   RCORE  =    2.200    outmost cutoff radius                                                       
   RWIGS  =    2.200; RWIGS  =    1.164    wigner-seitz radius (au A)                               
   ENMAX  =  293.238; ENMIN  =  219.928 eV                                                          
   ICORE  =        3    local potential                                                             
   LCOR   =        T    correct aug charges                                                         
   LPAW   =        T    paw PP                                                                      
   EAUG   =  578.342                                                                                
   DEXC   =    0.000                                                                                
   RMAX   =    2.249    core radius for proj-oper                                                   
   RAUG   =    1.300    factor for augmentation sphere                                              
   RDEP   =    2.296    radius for radial grids                                                     
   RDEPT  =    1.766    core radius for aug-charge                                                  
                                                                                                    
   Atomic configuration                                                                             
    8 entries                                                                                       
     n  l   j            E        occ.                                                              
     1  0  0.50     -6993.8440   2.0000                                                             
     2  0  0.50      -814.6047   2.0000                                                             
     2  1  1.50      -693.3689   6.0000                                                             
     3  0  0.50       -89.4732   2.0000                                                             
     3  1  1.50       -55.6373   6.0000                                                             
     3  2  2.50        -3.8151   7.0000                                                             
     4  0  0.50        -4.2551   1.0000                                                             
     4  3  2.50        -1.3606   0.0000                                                             
   Description                                                                                      
     l       E           TYP  RCUT    TYP  RCUT                                                     
     1    -55.6372668     23  2.000                                                                 
     1     -5.4423304     23  2.000                                                                 
     2     -3.8151096     23  2.200                                                                 
     2     -5.1756922     23  2.200                                                                 
     0     -4.2550951     23  2.200                                                                 
     0     27.2116520     23  2.200                                                                 
     3     -1.3605826     23  2.200                                                                 
  local pseudopotential read in
  partial core-charges read in
  partial kinetic energy density read in
  atomic valenz-charges read in
  non local Contribution for L=           1  read in
    real space projection operators read in
  non local Contribution for L=           1  read in
    real space projection operators read in
  non local Contribution for L=           2  read in
    real space projection operators read in
  non local Contribution for L=           2  read in
    real space projection operators read in
  non local Contribution for L=           0  read in
    real space projection operators read in
  non local Contribution for L=           0  read in
    real space projection operators read in
    PAW grid and wavefunctions read in
 
   number of l-projection  operators is LMAX  =           6
   number of lm-projection operators is LMMAX =          18
 
 POTCAR:    PAW_PBE Co_pv 23Apr2009               
   VRHFIN =Co: 3pd7s1                                                                               
   LEXCH  = PE                                                                                      
   EATOM  =  2948.1334 eV,  216.6817 Ry                                                             
                                                                                                    
   TITEL  = PAW_PBE Co_pv 23Apr2009                                                                 
   LULTRA =        F    use ultrasoft PP ?                                                          
   IUNSCR =        1    unscreen: 0-lin 1-nonlin 2-no                                               
   RPACOR =    2.000    partial core radius                                                         
   POMASS =   58.933; ZVAL   =   15.000    mass and valenz                                          
   RCORE  =    2.300    outmost cutoff radius                                                       
   RWIGS  =    2.460; RWIGS  =    1.302    wigner-seitz radius (au A)                               
   ENMAX  =  271.042; ENMIN  =  203.281 eV                                                          
   ICORE  =        3    local potential                                                             
   LCOR   =        T    correct aug charges                                                         
   LPAW   =        T    paw PP                                                                      
   EAUG   =  543.066                                                                                
   DEXC   =    0.000                                                                                
   RMAX   =    2.360    core radius for proj-oper                                                   
   RAUG   =    1.300    factor for augmentation sphere                                              
   RDEP   =    2.393    radius for radial grids                                                     
   RDEPT  =    1.841    core radius for aug-charge                                                  
                                                                                                    
   Atomic configuration                                                                             
    8 entries                                                                                       
     n  l   j            E        occ.                                                              
     1  0  0.50     -7587.6674   2.0000                                                             
     2  0  0.50      -893.6084   2.0000                                                             
     2  1  1.50      -764.5805   6.0000                                                             
     3  0  0.50       -97.5973   2.0000                                                             
     3  1  1.50       -60.9648   6.0000                                                             
     3  2  2.50        -4.2382   8.0000                                                             
     4  0  0.50        -4.3746   1.0000                                                             
     4  3  2.50        -1.3606   0.0000                                                             
   Description                                                                                      
     l       E           TYP  RCUT    TYP  RCUT                                                     
     1    -60.9647990     23  2.000                                                                 
     1     -5.4423304     23  2.000                                                                 
     2     -4.2382362     23  2.300                                                                 
     2     -5.5988188     23  2.300                                                                 
     0     -4.3745797     23  2.300                                                                 
     0      5.7660125     23  2.300                                                                 
     3     -1.3605826     23  2.300                                                                 
  local pseudopotential read in
  partial core-charges read in
  partial kinetic energy density read in
  atomic valenz-charges read in
  non local Contribution for L=           1  read in
    real space projection operators read in
  non local Contribution for L=           1  read in
    real space projection operators read in
  non local Contribution for L=           2  read in
    real space projection operators read in
  non local Contribution for L=           2  read in
    real space projection operators read in
  non local Contribution for L=           0  read in
    real space projection operators read in
  non local Contribution for L=           0  read in
    real space projection operators read in
    PAW grid and wavefunctions read in
 
   number of l-projection  operators is LMAX  =           6
   number of lm-projection operators is LMMAX =          18
 
 POTCAR:     PAW_PBE Al 04Jan2001                 
   VRHFIN =Al: s2p1                                                                                 
   LEXCH  = PE                                                                                      
   EATOM  =    53.5387 eV,    3.9350 Ry                                                             
                                                                                                    
   TITEL  = PAW_PBE Al 04Jan2001                                                                    
   LULTRA =        F    use ultrasoft PP ?                                                          
   IUNSCR =        1    unscreen: 0-lin 1-nonlin 2-no                                               
   RPACOR =    1.500    partial core radiusA                                                        
   POMASS =   26.981; ZVAL   =    3.000    mass and valenz                                          
   RCORE  =    1.900    outmost cutoff radius                                                       
   RWIGS  =    2.650; RWIGS  =    1.402    wigner-seitz radius (au A)                               
   ENMAX  =  240.300; ENMIN  =  180.225 eV                                                          
   ICORE  =        2    local potential                                                             
   LCOR   =        T    correct aug charges                                                         
   LPAW   =        T    paw PP                                                                      
   EAUG   =  291.052                                                                                
   DEXC   =    0.000                                                                                
   RMAX   =    1.939    core radius for proj-oper                                                   
   RAUG   =    1.300    factor for augmentation sphere                                              
   RDEP   =    1.966    radius for radial grids                                                     
   RDEPT  =    1.856    core radius for aug-charge                                                  
                                                                                                    
   Atomic configuration                                                                             
    6 entries                                                                                       
     n  l   j            E        occ.                                                              
     1  0  0.50     -1511.1048   2.0000                                                             
     2  0  0.50      -108.1629   2.0000                                                             
     2  1  1.50       -69.6402   6.0000                                                             
     3  0  0.50        -7.7528   2.0000                                                             
     3  1  1.50        -2.7121   1.0000                                                             
     3  2  2.50        -2.7212   0.0000                                                             
   Description                                                                                      
     l       E           TYP  RCUT    TYP  RCUT                                                     
     0     -7.7528455     23  1.900                                                                 
     0     -3.3096929     23  1.900                                                                 
     1     -2.7120682     23  1.900                                                                 
     1     13.6058260     23  1.900                                                                 
     2     -2.7211652      7  1.900                                                                 
  local pseudopotential read in
  partial core-charges read in
  partial kinetic energy density read in
  atomic valenz-charges read in
  non local Contribution for L=           0  read in
    real space projection operators read in
  non local Contribution for L=           0  read in
    real space projection operators read in
  non local Contribution for L=           1  read in
    real space projection operators read in
  non local Contribution for L=           1  read in
    real space projection operators read in
    PAW grid and wavefunctions read in
 
   number of l-projection  operators is LMAX  =           4
   number of lm-projection operators is LMMAX =           8
 
 Optimization of the real space projectors (new method)

 maximal supplied QI-value         = 17.01
 optimisation between [QCUT,QGAM] = [ 11.40, 22.79] = [ 36.36,145.44] Ry 
 Optimized for a Real-space Cutoff    1.47 Angstroem

   l    n(q)    QCUT    max X(q) W(low)/X(q) W(high)/X(q)  e(spline) 
   1     10    11.395     4.267    0.90E-04    0.11E-03    0.18E-06
   1     10    11.395     5.750    0.14E-03    0.15E-03    0.25E-06
   2      9    11.395    53.656    0.13E-03    0.36E-04    0.15E-06
   2      9    11.395    49.521    0.14E-03    0.36E-04    0.15E-06
   0     10    11.395    31.246    0.58E-04    0.17E-05    0.98E-07
   0     10    11.395    12.201    0.41E-04    0.11E-05    0.82E-07
 Optimization of the real space projectors (new method)

 maximal supplied QI-value         = 16.25
 optimisation between [QCUT,QGAM] = [ 11.38, 22.75] = [ 36.24,144.96] Ry 
 Optimized for a Real-space Cutoff    1.47 Angstroem

   l    n(q)    QCUT    max X(q) W(low)/X(q) W(high)/X(q)  e(spline) 
   1     10    11.376     4.946    0.88E-04    0.16E-03    0.15E-06
   1     10    11.376     5.991    0.13E-03    0.24E-03    0.21E-06
   2      9    11.376    46.947    0.87E-04    0.91E-04    0.20E-06
   2      9    11.376    42.928    0.91E-04    0.94E-04    0.20E-06
   0     10    11.376    68.324    0.58E-04    0.21E-04    0.82E-07
   0     10    11.376    36.926    0.52E-04    0.19E-04    0.78E-07
 Optimization of the real space projectors (new method)

 maximal supplied QI-value         = 19.84
 optimisation between [QCUT,QGAM] = [ 11.31, 22.82] = [ 35.82,145.81] Ry 
 Optimized for a Real-space Cutoff    1.16 Angstroem

   l    n(q)    QCUT    max X(q) W(low)/X(q) W(high)/X(q)  e(spline) 
   0      8    11.310   176.870    0.22E-03    0.22E-03    0.34E-07
   0      8    11.310   105.762    0.21E-03    0.22E-03    0.33E-07
   1      7    11.310    55.370    0.19E-03    0.26E-03    0.72E-07
   1      7    11.310    20.208    0.18E-03    0.24E-03    0.66E-07
  PAW_PBE Fe_pv 02Aug2007               :
 energy of atom  1       EATOM=-2457.4239
 kinetic energy error for atom=    0.0069 (will be added to EATOM!!)
  PAW_PBE Co_pv 23Apr2009               :
 energy of atom  2       EATOM=-2948.1334
 kinetic energy error for atom=    0.0060 (will be added to EATOM!!)
   PAW_PBE Al 04Jan2001                 :
 energy of atom  3       EATOM=  -53.5387
 kinetic energy error for atom=    0.0003 (will be added to EATOM!!)
 
 
 POSCAR: Heusler tetragonal
  positions in direct lattice
  velocities in cartesian coordinates
 exchange correlation table for  LEXCH =        8
   RHO(1)=    0.500       N(1)  =     2000
   RHO(2)=  100.500       N(2)  =     4000
 


--------------------------------------------------------------------------------------------------------


 ion  position               nearest neighbor table
   1  0.500  0.000  0.500-   5 2.46   6 2.46   7 2.46   8 2.46  14 2.49  16 2.49  15 2.49  13 2.49

   2  0.500  0.000  0.000-   5 2.46   6 2.46   7 2.46   8 2.46  14 2.49  16 2.49  15 2.49  13 2.49

   3  0.000  0.000  0.500-   5 2.47   6 2.47   7 2.47   8 2.47  13 2.47  15 2.47  14 2.47  16 2.47

   4  0.500  0.500  0.000-   5 2.47   6 2.47   7 2.47   8 2.47  14 2.47  16 2.47  15 2.47  13 2.47

   5  0.251  0.249  0.750-   1 2.46   2 2.46   3 2.47   4 2.47  10 2.47  12 2.47  11 2.48   9 2.48

   6  0.251  0.751  0.250-   1 2.46   2 2.46   3 2.47   4 2.47  10 2.47  12 2.47  11 2.48   9 2.48

   7  0.749  0.249  0.250-   1 2.46   2 2.46   3 2.47   4 2.47  10 2.47  12 2.47  11 2.48   9 2.48

   8  0.749  0.751  0.750-   1 2.46   2 2.46   3 2.47   4 2.47  10 2.47  12 2.47  11 2.48   9 2.48

   9  0.000  0.500  0.500-  13 2.45  15 2.45  14 2.45  16 2.45   5 2.48   6 2.48   7 2.48   8 2.48

  10  0.000  0.000  0.000-   5 2.47   6 2.47   7 2.47   8 2.47  13 2.47  15 2.47  14 2.47  16 2.47

  11  0.000  0.500  0.000-  13 2.45  15 2.45  14 2.45  16 2.45   5 2.48   6 2.48   7 2.48   8 2.48

  12  0.500  0.500  0.500-   5 2.47   6 2.47   7 2.47   8 2.47  14 2.47  16 2.47  15 2.47  13 2.47

  13  0.247  0.253  0.250-   9 2.45  11 2.45  10 2.47   3 2.47   4 2.47  12 2.47   1 2.49   2 2.49

  14  0.753  0.253  0.750-   9 2.45  11 2.45   3 2.47  10 2.47   4 2.47  12 2.47   1 2.49   2 2.49

  15  0.247  0.747  0.750-   9 2.45  11 2.45  10 2.47   3 2.47   4 2.47  12 2.47   1 2.49   2 2.49

  16  0.753  0.747  0.250-   9 2.45  11 2.45   3 2.47  10 2.47   4 2.47  12 2.47   1 2.49   2 2.49

 
  LATTYP: Found a simple tetragonal cell.
 ALAT       =     5.6925764072
 C/A-ratio  =     1.0065972024
  
  Lattice vectors:
  
 A1 = (   5.6925764072,   0.0000000000,   0.0000000000)
 A2 = (   0.0000000000,   5.6925764072,   0.0000000000)
 A3 = (   0.0000000000,   0.0000000000,   5.7301314857)


Analysis of symmetry for initial positions (statically):
=====================================================================
 Subroutine PRICEL returns:
 Original cell was already a primitive cell.
 

 Routine SETGRP: Setting up the symmetry group for a 
 simple tetragonal supercell.


 Subroutine GETGRP returns: Found  8 space group operations
 (whereof  4 operations were pure point group operations)
 out of a pool of 16 trial point group operations.


The static configuration has the point symmetry D_2 .
 The point group associated with its full space group is D_4 .


Analysis of symmetry for dynamics (positions and initial velocities):
=====================================================================
 Subroutine PRICEL returns:
 Original cell was already a primitive cell.
 

 Routine SETGRP: Setting up the symmetry group for a 
 simple tetragonal supercell.


 Subroutine GETGRP returns: Found  8 space group operations
 (whereof  4 operations were pure point group operations)
 out of a pool of 16 trial point group operations.


The dynamic configuration has the point symmetry D_2 .
 The point group associated with its full space group is D_4 .


Analysis of structural, dynamic, and magnetic symmetry:
=====================================================================
 Subroutine PRICEL returns:
 Original cell was already a primitive cell.
 

 Routine SETGRP: Setting up the symmetry group for a 
 simple tetragonal supercell.


 Subroutine GETGRP returns: Found  8 space group operations
 (whereof  4 operations were pure point group operations)
 out of a pool of 16 trial point group operations.


The overall configuration has the point symmetry D_2 .
 The point group associated with its full space group is D_4 .


 Subroutine INISYM returns: Found  8 space group operations
 (whereof  4 operations are pure point group operations),
 and found     1 'primitive' translations


----------------------------------------------------------------------------------------

                                     Primitive cell                                     

  volume of cell :     185.6874

  direct lattice vectors                    reciprocal lattice vectors
     5.692576407  0.000000000  0.000000000     0.175667383  0.000000000  0.000000000
     0.000000000  5.692576407  0.000000000     0.000000000  0.175667383  0.000000000
     0.000000000  0.000000000  5.730131486     0.000000000  0.000000000  0.174516065

  length of vectors
     5.692576407  5.692576407  5.730131486     0.175667383  0.175667383  0.174516065

  position of ions in fractional coordinates (direct lattice)
     0.500000000  0.000000000  0.500000000
     0.500000000  0.000000000  0.000000000
     0.000000000  0.000000000  0.500000000
     0.500000000  0.500000000  0.000000000
     0.251364640  0.248635360  0.750000000
     0.251364640  0.751364640  0.250000000
     0.748635360  0.248635360  0.250000000
     0.748635360  0.751364640  0.750000000
     0.000000000  0.500000000  0.500000000
     0.000000000  0.000000000  0.000000000
     0.000000000  0.500000000  0.000000000
     0.500000000  0.500000000  0.500000000
     0.246853638  0.253146362  0.250000000
     0.753146362  0.253146362  0.750000000
     0.246853638  0.746853638  0.750000000
     0.753146362  0.746853638  0.250000000

  ion indices of the primitive-cell ions
   primitive index   ion index
                 1           1
                 2           2
                 3           3
                 4           4
                 5           5
                 6           6
                 7           7
                 8           8
                 9           9
                10          10
                11          11
                12          12
                13          13
                14          14
                15          15
                16          16

----------------------------------------------------------------------------------------

 
 
 KPOINTS: Ni7CoMn5CrSn2                           

Automatic generation of k-mesh.
 Grid dimensions read from file:
 generate k-points for:   15   15   15

 Generating k-lattice:

  Cartesian coordinates                     Fractional coordinates (reciprocal lattice)
     0.011711159  0.000000000  0.000000000     0.066666667  0.000000000  0.000000000
     0.000000000  0.011711159  0.000000000     0.000000000  0.066666667  0.000000000
     0.000000000  0.000000000  0.011634404     0.000000000  0.000000000  0.066666667

  Length of vectors
     0.011711159  0.011711159  0.011634404

  Shift w.r.t. Gamma in fractional coordinates (k-lattice)
     0.000000000  0.000000000  0.000000000

 
 Subroutine IBZKPT returns following result:
 ===========================================
 
 Found    288 irreducible k-points:
 
 Following reciprocal coordinates:
            Coordinates               Weight
  0.000000  0.000000  0.000000      1.000000
  0.066667  0.000000  0.000000      4.000000
  0.133333  0.000000  0.000000      4.000000
  0.200000  0.000000  0.000000      4.000000
  0.266667  0.000000  0.000000      4.000000
  0.333333  0.000000  0.000000      4.000000
  0.400000  0.000000  0.000000      4.000000
  0.466667  0.000000  0.000000      4.000000
  0.066667  0.066667  0.000000      4.000000
  0.133333  0.066667  0.000000      8.000000
  0.200000  0.066667  0.000000      8.000000
  0.266667  0.066667  0.000000      8.000000
  0.333333  0.066667  0.000000      8.000000
  0.400000  0.066667  0.000000      8.000000
  0.466667  0.066667  0.000000      8.000000
  0.133333  0.133333  0.000000      4.000000
  0.200000  0.133333  0.000000      8.000000
  0.266667  0.133333  0.000000      8.000000
  0.333333  0.133333  0.000000      8.000000
  0.400000  0.133333  0.000000      8.000000
  0.466667  0.133333  0.000000      8.000000
  0.200000  0.200000  0.000000      4.000000
  0.266667  0.200000  0.000000      8.000000
  0.333333  0.200000  0.000000      8.000000
  0.400000  0.200000  0.000000      8.000000
  0.466667  0.200000  0.000000      8.000000
  0.266667  0.266667  0.000000      4.000000
  0.333333  0.266667  0.000000      8.000000
  0.400000  0.266667  0.000000      8.000000
  0.466667  0.266667  0.000000      8.000000
  0.333333  0.333333  0.000000      4.000000
  0.400000  0.333333  0.000000      8.000000
  0.466667  0.333333  0.000000      8.000000
  0.400000  0.400000  0.000000      4.000000
  0.466667  0.400000  0.000000      8.000000
  0.466667  0.466667  0.000000      4.000000
  0.000000  0.000000  0.066667      2.000000
  0.066667  0.000000  0.066667      8.000000
  0.133333  0.000000  0.066667      8.000000
  0.200000  0.000000  0.066667      8.000000
  0.266667  0.000000  0.066667      8.000000
  0.333333  0.000000  0.066667      8.000000
  0.400000  0.000000  0.066667      8.000000
  0.466667  0.000000  0.066667      8.000000
  0.066667  0.066667  0.066667      8.000000
  0.133333  0.066667  0.066667     16.000000
  0.200000  0.066667  0.066667     16.000000
  0.266667  0.066667  0.066667     16.000000
  0.333333  0.066667  0.066667     16.000000
  0.400000  0.066667  0.066667     16.000000
  0.466667  0.066667  0.066667     16.000000
  0.133333  0.133333  0.066667      8.000000
  0.200000  0.133333  0.066667     16.000000
  0.266667  0.133333  0.066667     16.000000
  0.333333  0.133333  0.066667     16.000000
  0.400000  0.133333  0.066667     16.000000
  0.466667  0.133333  0.066667     16.000000
  0.200000  0.200000  0.066667      8.000000
  0.266667  0.200000  0.066667     16.000000
  0.333333  0.200000  0.066667     16.000000
  0.400000  0.200000  0.066667     16.000000
  0.466667  0.200000  0.066667     16.000000
  0.266667  0.266667  0.066667      8.000000
  0.333333  0.266667  0.066667     16.000000
  0.400000  0.266667  0.066667     16.000000
  0.466667  0.266667  0.066667     16.000000
  0.333333  0.333333  0.066667      8.000000
  0.400000  0.333333  0.066667     16.000000
  0.466667  0.333333  0.066667     16.000000
  0.400000  0.400000  0.066667      8.000000
  0.466667  0.400000  0.066667     16.000000
  0.466667  0.466667  0.066667      8.000000
  0.000000  0.000000  0.133333      2.000000
  0.066667  0.000000  0.133333      8.000000
  0.133333  0.000000  0.133333      8.000000
  0.200000  0.000000  0.133333      8.000000
  0.266667  0.000000  0.133333      8.000000
  0.333333  0.000000  0.133333      8.000000
  0.400000  0.000000  0.133333      8.000000
  0.466667  0.000000  0.133333      8.000000
  0.066667  0.066667  0.133333      8.000000
  0.133333  0.066667  0.133333     16.000000
  0.200000  0.066667  0.133333     16.000000
  0.266667  0.066667  0.133333     16.000000
  0.333333  0.066667  0.133333     16.000000
  0.400000  0.066667  0.133333     16.000000
  0.466667  0.066667  0.133333     16.000000
  0.133333  0.133333  0.133333      8.000000
  0.200000  0.133333  0.133333     16.000000
  0.266667  0.133333  0.133333     16.000000
  0.333333  0.133333  0.133333     16.000000
  0.400000  0.133333  0.133333     16.000000
  0.466667  0.133333  0.133333     16.000000
  0.200000  0.200000  0.133333      8.000000
  0.266667  0.200000  0.133333     16.000000
  0.333333  0.200000  0.133333     16.000000
  0.400000  0.200000  0.133333     16.000000
  0.466667  0.200000  0.133333     16.000000
  0.266667  0.266667  0.133333      8.000000
  0.333333  0.266667  0.133333     16.000000
  0.400000  0.266667  0.133333     16.000000
  0.466667  0.266667  0.133333     16.000000
  0.333333  0.333333  0.133333      8.000000
  0.400000  0.333333  0.133333     16.000000
  0.466667  0.333333  0.133333     16.000000
  0.400000  0.400000  0.133333      8.000000
  0.466667  0.400000  0.133333     16.000000
  0.466667  0.466667  0.133333      8.000000
  0.000000  0.000000  0.200000      2.000000
  0.066667  0.000000  0.200000      8.000000
  0.133333  0.000000  0.200000      8.000000
  0.200000  0.000000  0.200000      8.000000
  0.266667  0.000000  0.200000      8.000000
  0.333333  0.000000  0.200000      8.000000
  0.400000  0.000000  0.200000      8.000000
  0.466667  0.000000  0.200000      8.000000
  0.066667  0.066667  0.200000      8.000000
  0.133333  0.066667  0.200000     16.000000
  0.200000  0.066667  0.200000     16.000000
  0.266667  0.066667  0.200000     16.000000
  0.333333  0.066667  0.200000     16.000000
  0.400000  0.066667  0.200000     16.000000
  0.466667  0.066667  0.200000     16.000000
  0.133333  0.133333  0.200000      8.000000
  0.200000  0.133333  0.200000     16.000000
  0.266667  0.133333  0.200000     16.000000
  0.333333  0.133333  0.200000     16.000000
  0.400000  0.133333  0.200000     16.000000
  0.466667  0.133333  0.200000     16.000000
  0.200000  0.200000  0.200000      8.000000
  0.266667  0.200000  0.200000     16.000000
  0.333333  0.200000  0.200000     16.000000
  0.400000  0.200000  0.200000     16.000000
  0.466667  0.200000  0.200000     16.000000
  0.266667  0.266667  0.200000      8.000000
  0.333333  0.266667  0.200000     16.000000
  0.400000  0.266667  0.200000     16.000000
  0.466667  0.266667  0.200000     16.000000
  0.333333  0.333333  0.200000      8.000000
  0.400000  0.333333  0.200000     16.000000
  0.466667  0.333333  0.200000     16.000000
  0.400000  0.400000  0.200000      8.000000
  0.466667  0.400000  0.200000     16.000000
  0.466667  0.466667  0.200000      8.000000
  0.000000  0.000000  0.266667      2.000000
  0.066667  0.000000  0.266667      8.000000
  0.133333  0.000000  0.266667      8.000000
  0.200000  0.000000  0.266667      8.000000
  0.266667  0.000000  0.266667      8.000000
  0.333333  0.000000  0.266667      8.000000
  0.400000  0.000000  0.266667      8.000000
  0.466667  0.000000  0.266667      8.000000
  0.066667  0.066667  0.266667      8.000000
  0.133333  0.066667  0.266667     16.000000
  0.200000  0.066667  0.266667     16.000000
  0.266667  0.066667  0.266667     16.000000
  0.333333  0.066667  0.266667     16.000000
  0.400000  0.066667  0.266667     16.000000
  0.466667  0.066667  0.266667     16.000000
  0.133333  0.133333  0.266667      8.000000
  0.200000  0.133333  0.266667     16.000000
  0.266667  0.133333  0.266667     16.000000
  0.333333  0.133333  0.266667     16.000000
  0.400000  0.133333  0.266667     16.000000
  0.466667  0.133333  0.266667     16.000000
  0.200000  0.200000  0.266667      8.000000
  0.266667  0.200000  0.266667     16.000000
  0.333333  0.200000  0.266667     16.000000
  0.400000  0.200000  0.266667     16.000000
  0.466667  0.200000  0.266667     16.000000
  0.266667  0.266667  0.266667      8.000000
  0.333333  0.266667  0.266667     16.000000
  0.400000  0.266667  0.266667     16.000000
  0.466667  0.266667  0.266667     16.000000
  0.333333  0.333333  0.266667      8.000000
  0.400000  0.333333  0.266667     16.000000
  0.466667  0.333333  0.266667     16.000000
  0.400000  0.400000  0.266667      8.000000
  0.466667  0.400000  0.266667     16.000000
  0.466667  0.466667  0.266667      8.000000
  0.000000  0.000000  0.333333      2.000000
  0.066667  0.000000  0.333333      8.000000
  0.133333  0.000000  0.333333      8.000000
  0.200000  0.000000  0.333333      8.000000
  0.266667  0.000000  0.333333      8.000000
  0.333333  0.000000  0.333333      8.000000
  0.400000  0.000000  0.333333      8.000000
  0.466667  0.000000  0.333333      8.000000
  0.066667  0.066667  0.333333      8.000000
  0.133333  0.066667  0.333333     16.000000
  0.200000  0.066667  0.333333     16.000000
  0.266667  0.066667  0.333333     16.000000
  0.333333  0.066667  0.333333     16.000000
  0.400000  0.066667  0.333333     16.000000
  0.466667  0.066667  0.333333     16.000000
  0.133333  0.133333  0.333333      8.000000
  0.200000  0.133333  0.333333     16.000000
  0.266667  0.133333  0.333333     16.000000
  0.333333  0.133333  0.333333     16.000000
  0.400000  0.133333  0.333333     16.000000
  0.466667  0.133333  0.333333     16.000000
  0.200000  0.200000  0.333333      8.000000
  0.266667  0.200000  0.333333     16.000000
  0.333333  0.200000  0.333333     16.000000
  0.400000  0.200000  0.333333     16.000000
  0.466667  0.200000  0.333333     16.000000
  0.266667  0.266667  0.333333      8.000000
  0.333333  0.266667  0.333333     16.000000
  0.400000  0.266667  0.333333     16.000000
  0.466667  0.266667  0.333333     16.000000
  0.333333  0.333333  0.333333      8.000000
  0.400000  0.333333  0.333333     16.000000
  0.466667  0.333333  0.333333     16.000000
  0.400000  0.400000  0.333333      8.000000
  0.466667  0.400000  0.333333     16.000000
  0.466667  0.466667  0.333333      8.000000
  0.000000  0.000000  0.400000      2.000000
  0.066667  0.000000  0.400000      8.000000
  0.133333  0.000000  0.400000      8.000000
  0.200000  0.000000  0.400000      8.000000
  0.266667  0.000000  0.400000      8.000000
  0.333333  0.000000  0.400000      8.000000
  0.400000  0.000000  0.400000      8.000000
  0.466667  0.000000  0.400000      8.000000
  0.066667  0.066667  0.400000      8.000000
  0.133333  0.066667  0.400000     16.000000
  0.200000  0.066667  0.400000     16.000000
  0.266667  0.066667  0.400000     16.000000
  0.333333  0.066667  0.400000     16.000000
  0.400000  0.066667  0.400000     16.000000
  0.466667  0.066667  0.400000     16.000000
  0.133333  0.133333  0.400000      8.000000
  0.200000  0.133333  0.400000     16.000000
  0.266667  0.133333  0.400000     16.000000
  0.333333  0.133333  0.400000     16.000000
  0.400000  0.133333  0.400000     16.000000
  0.466667  0.133333  0.400000     16.000000
  0.200000  0.200000  0.400000      8.000000
  0.266667  0.200000  0.400000     16.000000
  0.333333  0.200000  0.400000     16.000000
  0.400000  0.200000  0.400000     16.000000
  0.466667  0.200000  0.400000     16.000000
  0.266667  0.266667  0.400000      8.000000
  0.333333  0.266667  0.400000     16.000000
  0.400000  0.266667  0.400000     16.000000
  0.466667  0.266667  0.400000     16.000000
  0.333333  0.333333  0.400000      8.000000
  0.400000  0.333333  0.400000     16.000000
  0.466667  0.333333  0.400000     16.000000
  0.400000  0.400000  0.400000      8.000000
  0.466667  0.400000  0.400000     16.000000
  0.466667  0.466667  0.400000      8.000000
  0.000000  0.000000  0.466667      2.000000
  0.066667  0.000000  0.466667      8.000000
  0.133333  0.000000  0.466667      8.000000
  0.200000  0.000000  0.466667      8.000000
  0.266667  0.000000  0.466667      8.000000
  0.333333  0.000000  0.466667      8.000000
  0.400000  0.000000  0.466667      8.000000
  0.466667  0.000000  0.466667      8.000000
  0.066667  0.066667  0.466667      8.000000
  0.133333  0.066667  0.466667     16.000000
  0.200000  0.066667  0.466667     16.000000
  0.266667  0.066667  0.466667     16.000000
  0.333333  0.066667  0.466667     16.000000
  0.400000  0.066667  0.466667     16.000000
  0.466667  0.066667  0.466667     16.000000
  0.133333  0.133333  0.466667      8.000000
  0.200000  0.133333  0.466667     16.000000
  0.266667  0.133333  0.466667     16.000000
  0.333333  0.133333  0.466667     16.000000
  0.400000  0.133333  0.466667     16.000000
  0.466667  0.133333  0.466667     16.000000
  0.200000  0.200000  0.466667      8.000000
  0.266667  0.200000  0.466667     16.000000
  0.333333  0.200000  0.466667     16.000000
  0.400000  0.200000  0.466667     16.000000
  0.466667  0.200000  0.466667     16.000000
  0.266667  0.266667  0.466667      8.000000
  0.333333  0.266667  0.466667     16.000000
  0.400000  0.266667  0.466667     16.000000
  0.466667  0.266667  0.466667     16.000000
  0.333333  0.333333  0.466667      8.000000
  0.400000  0.333333  0.466667     16.000000
  0.466667  0.333333  0.466667     16.000000
  0.400000  0.400000  0.466667      8.000000
  0.466667  0.400000  0.466667     16.000000
  0.466667  0.466667  0.466667      8.000000
 
 Following cartesian coordinates:
            Coordinates               Weight
  0.000000  0.000000  0.000000      1.000000
  0.067925  0.000000  0.000000      4.000000
  0.135849  0.000000  0.000000      4.000000
  0.203774  0.000000  0.000000      4.000000
  0.271699  0.000000  0.000000      4.000000
  0.339624  0.000000  0.000000      4.000000
  0.407548  0.000000  0.000000      4.000000
  0.475473  0.000000  0.000000      4.000000
  0.067925  0.067925  0.000000      4.000000
  0.135849  0.067925  0.000000      8.000000
  0.203774  0.067925  0.000000      8.000000
  0.271699  0.067925  0.000000      8.000000
  0.339624  0.067925  0.000000      8.000000
  0.407548  0.067925  0.000000      8.000000
  0.475473  0.067925  0.000000      8.000000
  0.135849  0.135849  0.000000      4.000000
  0.203774  0.135849  0.000000      8.000000
  0.271699  0.135849  0.000000      8.000000
  0.339624  0.135849  0.000000      8.000000
  0.407548  0.135849  0.000000      8.000000
  0.475473  0.135849  0.000000      8.000000
  0.203774  0.203774  0.000000      4.000000
  0.271699  0.203774  0.000000      8.000000
  0.339624  0.203774  0.000000      8.000000
  0.407548  0.203774  0.000000      8.000000
  0.475473  0.203774  0.000000      8.000000
  0.271699  0.271699  0.000000      4.000000
  0.339624  0.271699  0.000000      8.000000
  0.407548  0.271699  0.000000      8.000000
  0.475473  0.271699  0.000000      8.000000
  0.339624  0.339624  0.000000      4.000000
  0.407548  0.339624  0.000000      8.000000
  0.475473  0.339624  0.000000      8.000000
  0.407548  0.407548  0.000000      4.000000
  0.475473  0.407548  0.000000      8.000000
  0.475473  0.475473  0.000000      4.000000
  0.000000  0.000000  0.067480      2.000000
  0.067925  0.000000  0.067480      8.000000
  0.135849  0.000000  0.067480      8.000000
  0.203774  0.000000  0.067480      8.000000
  0.271699  0.000000  0.067480      8.000000
  0.339624  0.000000  0.067480      8.000000
  0.407548  0.000000  0.067480      8.000000
  0.475473  0.000000  0.067480      8.000000
  0.067925  0.067925  0.067480      8.000000
  0.135849  0.067925  0.067480     16.000000
  0.203774  0.067925  0.067480     16.000000
  0.271699  0.067925  0.067480     16.000000
  0.339624  0.067925  0.067480     16.000000
  0.407548  0.067925  0.067480     16.000000
  0.475473  0.067925  0.067480     16.000000
  0.135849  0.135849  0.067480      8.000000
  0.203774  0.135849  0.067480     16.000000
  0.271699  0.135849  0.067480     16.000000
  0.339624  0.135849  0.067480     16.000000
  0.407548  0.135849  0.067480     16.000000
  0.475473  0.135849  0.067480     16.000000
  0.203774  0.203774  0.067480      8.000000
  0.271699  0.203774  0.067480     16.000000
  0.339624  0.203774  0.067480     16.000000
  0.407548  0.203774  0.067480     16.000000
  0.475473  0.203774  0.067480     16.000000
  0.271699  0.271699  0.067480      8.000000
  0.339624  0.271699  0.067480     16.000000
  0.407548  0.271699  0.067480     16.000000
  0.475473  0.271699  0.067480     16.000000
  0.339624  0.339624  0.067480      8.000000
  0.407548  0.339624  0.067480     16.000000
  0.475473  0.339624  0.067480     16.000000
  0.407548  0.407548  0.067480      8.000000
  0.475473  0.407548  0.067480     16.000000
  0.475473  0.475473  0.067480      8.000000
  0.000000  0.000000  0.134959      2.000000
  0.067925  0.000000  0.134959      8.000000
  0.135849  0.000000  0.134959      8.000000
  0.203774  0.000000  0.134959      8.000000
  0.271699  0.000000  0.134959      8.000000
  0.339624  0.000000  0.134959      8.000000
  0.407548  0.000000  0.134959      8.000000
  0.475473  0.000000  0.134959      8.000000
  0.067925  0.067925  0.134959      8.000000
  0.135849  0.067925  0.134959     16.000000
  0.203774  0.067925  0.134959     16.000000
  0.271699  0.067925  0.134959     16.000000
  0.339624  0.067925  0.134959     16.000000
  0.407548  0.067925  0.134959     16.000000
  0.475473  0.067925  0.134959     16.000000
  0.135849  0.135849  0.134959      8.000000
  0.203774  0.135849  0.134959     16.000000
  0.271699  0.135849  0.134959     16.000000
  0.339624  0.135849  0.134959     16.000000
  0.407548  0.135849  0.134959     16.000000
  0.475473  0.135849  0.134959     16.000000
  0.203774  0.203774  0.134959      8.000000
  0.271699  0.203774  0.134959     16.000000
  0.339624  0.203774  0.134959     16.000000
  0.407548  0.203774  0.134959     16.000000
  0.475473  0.203774  0.134959     16.000000
  0.271699  0.271699  0.134959      8.000000
  0.339624  0.271699  0.134959     16.000000
  0.407548  0.271699  0.134959     16.000000
  0.475473  0.271699  0.134959     16.000000
  0.339624  0.339624  0.134959      8.000000
  0.407548  0.339624  0.134959     16.000000
  0.475473  0.339624  0.134959     16.000000
  0.407548  0.407548  0.134959      8.000000
  0.475473  0.407548  0.134959     16.000000
  0.475473  0.475473  0.134959      8.000000
  0.000000  0.000000  0.202439      2.000000
  0.067925  0.000000  0.202439      8.000000
  0.135849  0.000000  0.202439      8.000000
  0.203774  0.000000  0.202439      8.000000
  0.271699  0.000000  0.202439      8.000000
  0.339624  0.000000  0.202439      8.000000
  0.407548  0.000000  0.202439      8.000000
  0.475473  0.000000  0.202439      8.000000
  0.067925  0.067925  0.202439      8.000000
  0.135849  0.067925  0.202439     16.000000
  0.203774  0.067925  0.202439     16.000000
  0.271699  0.067925  0.202439     16.000000
  0.339624  0.067925  0.202439     16.000000
  0.407548  0.067925  0.202439     16.000000
  0.475473  0.067925  0.202439     16.000000
  0.135849  0.135849  0.202439      8.000000
  0.203774  0.135849  0.202439     16.000000
  0.271699  0.135849  0.202439     16.000000
  0.339624  0.135849  0.202439     16.000000
  0.407548  0.135849  0.202439     16.000000
  0.475473  0.135849  0.202439     16.000000
  0.203774  0.203774  0.202439      8.000000
  0.271699  0.203774  0.202439     16.000000
  0.339624  0.203774  0.202439     16.000000
  0.407548  0.203774  0.202439     16.000000
  0.475473  0.203774  0.202439     16.000000
  0.271699  0.271699  0.202439      8.000000
  0.339624  0.271699  0.202439     16.000000
  0.407548  0.271699  0.202439     16.000000
  0.475473  0.271699  0.202439     16.000000
  0.339624  0.339624  0.202439      8.000000
  0.407548  0.339624  0.202439     16.000000
  0.475473  0.339624  0.202439     16.000000
  0.407548  0.407548  0.202439      8.000000
  0.475473  0.407548  0.202439     16.000000
  0.475473  0.475473  0.202439      8.000000
  0.000000  0.000000  0.269918      2.000000
  0.067925  0.000000  0.269918      8.000000
  0.135849  0.000000  0.269918      8.000000
  0.203774  0.000000  0.269918      8.000000
  0.271699  0.000000  0.269918      8.000000
  0.339624  0.000000  0.269918      8.000000
  0.407548  0.000000  0.269918      8.000000
  0.475473  0.000000  0.269918      8.000000
  0.067925  0.067925  0.269918      8.000000
  0.135849  0.067925  0.269918     16.000000
  0.203774  0.067925  0.269918     16.000000
  0.271699  0.067925  0.269918     16.000000
  0.339624  0.067925  0.269918     16.000000
  0.407548  0.067925  0.269918     16.000000
  0.475473  0.067925  0.269918     16.000000
  0.135849  0.135849  0.269918      8.000000
  0.203774  0.135849  0.269918     16.000000
  0.271699  0.135849  0.269918     16.000000
  0.339624  0.135849  0.269918     16.000000
  0.407548  0.135849  0.269918     16.000000
  0.475473  0.135849  0.269918     16.000000
  0.203774  0.203774  0.269918      8.000000
  0.271699  0.203774  0.269918     16.000000
  0.339624  0.203774  0.269918     16.000000
  0.407548  0.203774  0.269918     16.000000
  0.475473  0.203774  0.269918     16.000000
  0.271699  0.271699  0.269918      8.000000
  0.339624  0.271699  0.269918     16.000000
  0.407548  0.271699  0.269918     16.000000
  0.475473  0.271699  0.269918     16.000000
  0.339624  0.339624  0.269918      8.000000
  0.407548  0.339624  0.269918     16.000000
  0.475473  0.339624  0.269918     16.000000
  0.407548  0.407548  0.269918      8.000000
  0.475473  0.407548  0.269918     16.000000
  0.475473  0.475473  0.269918      8.000000
  0.000000  0.000000  0.337398      2.000000
  0.067925  0.000000  0.337398      8.000000
  0.135849  0.000000  0.337398      8.000000
  0.203774  0.000000  0.337398      8.000000
  0.271699  0.000000  0.337398      8.000000
  0.339624  0.000000  0.337398      8.000000
  0.407548  0.000000  0.337398      8.000000
  0.475473  0.000000  0.337398      8.000000
  0.067925  0.067925  0.337398      8.000000
  0.135849  0.067925  0.337398     16.000000
  0.203774  0.067925  0.337398     16.000000
  0.271699  0.067925  0.337398     16.000000
  0.339624  0.067925  0.337398     16.000000
  0.407548  0.067925  0.337398     16.000000
  0.475473  0.067925  0.337398     16.000000
  0.135849  0.135849  0.337398      8.000000
  0.203774  0.135849  0.337398     16.000000
  0.271699  0.135849  0.337398     16.000000
  0.339624  0.135849  0.337398     16.000000
  0.407548  0.135849  0.337398     16.000000
  0.475473  0.135849  0.337398     16.000000
  0.203774  0.203774  0.337398      8.000000
  0.271699  0.203774  0.337398     16.000000
  0.339624  0.203774  0.337398     16.000000
  0.407548  0.203774  0.337398     16.000000
  0.475473  0.203774  0.337398     16.000000
  0.271699  0.271699  0.337398      8.000000
  0.339624  0.271699  0.337398     16.000000
  0.407548  0.271699  0.337398     16.000000
  0.475473  0.271699  0.337398     16.000000
  0.339624  0.339624  0.337398      8.000000
  0.407548  0.339624  0.337398     16.000000
  0.475473  0.339624  0.337398     16.000000
  0.407548  0.407548  0.337398      8.000000
  0.475473  0.407548  0.337398     16.000000
  0.475473  0.475473  0.337398      8.000000
  0.000000  0.000000  0.404877      2.000000
  0.067925  0.000000  0.404877      8.000000
  0.135849  0.000000  0.404877      8.000000
  0.203774  0.000000  0.404877      8.000000
  0.271699  0.000000  0.404877      8.000000
  0.339624  0.000000  0.404877      8.000000
  0.407548  0.000000  0.404877      8.000000
  0.475473  0.000000  0.404877      8.000000
  0.067925  0.067925  0.404877      8.000000
  0.135849  0.067925  0.404877     16.000000
  0.203774  0.067925  0.404877     16.000000
  0.271699  0.067925  0.404877     16.000000
  0.339624  0.067925  0.404877     16.000000
  0.407548  0.067925  0.404877     16.000000
  0.475473  0.067925  0.404877     16.000000
  0.135849  0.135849  0.404877      8.000000
  0.203774  0.135849  0.404877     16.000000
  0.271699  0.135849  0.404877     16.000000
  0.339624  0.135849  0.404877     16.000000
  0.407548  0.135849  0.404877     16.000000
  0.475473  0.135849  0.404877     16.000000
  0.203774  0.203774  0.404877      8.000000
  0.271699  0.203774  0.404877     16.000000
  0.339624  0.203774  0.404877     16.000000
  0.407548  0.203774  0.404877     16.000000
  0.475473  0.203774  0.404877     16.000000
  0.271699  0.271699  0.404877      8.000000
  0.339624  0.271699  0.404877     16.000000
  0.407548  0.271699  0.404877     16.000000
  0.475473  0.271699  0.404877     16.000000
  0.339624  0.339624  0.404877      8.000000
  0.407548  0.339624  0.404877     16.000000
  0.475473  0.339624  0.404877     16.000000
  0.407548  0.407548  0.404877      8.000000
  0.475473  0.407548  0.404877     16.000000
  0.475473  0.475473  0.404877      8.000000
  0.000000  0.000000  0.472357      2.000000
  0.067925  0.000000  0.472357      8.000000
  0.135849  0.000000  0.472357      8.000000
  0.203774  0.000000  0.472357      8.000000
  0.271699  0.000000  0.472357      8.000000
  0.339624  0.000000  0.472357      8.000000
  0.407548  0.000000  0.472357      8.000000
  0.475473  0.000000  0.472357      8.000000
  0.067925  0.067925  0.472357      8.000000
  0.135849  0.067925  0.472357     16.000000
  0.203774  0.067925  0.472357     16.000000
  0.271699  0.067925  0.472357     16.000000
  0.339624  0.067925  0.472357     16.000000
  0.407548  0.067925  0.472357     16.000000
  0.475473  0.067925  0.472357     16.000000
  0.135849  0.135849  0.472357      8.000000
  0.203774  0.135849  0.472357     16.000000
  0.271699  0.135849  0.472357     16.000000
  0.339624  0.135849  0.472357     16.000000
  0.407548  0.135849  0.472357     16.000000
  0.475473  0.135849  0.472357     16.000000
  0.203774  0.203774  0.472357      8.000000
  0.271699  0.203774  0.472357     16.000000
  0.339624  0.203774  0.472357     16.000000
  0.407548  0.203774  0.472357     16.000000
  0.475473  0.203774  0.472357     16.000000
  0.271699  0.271699  0.472357      8.000000
  0.339624  0.271699  0.472357     16.000000
  0.407548  0.271699  0.472357     16.000000
  0.475473  0.271699  0.472357     16.000000
  0.339624  0.339624  0.472357      8.000000
  0.407548  0.339624  0.472357     16.000000
  0.475473  0.339624  0.472357     16.000000
  0.407548  0.407548  0.472357      8.000000
  0.475473  0.407548  0.472357     16.000000
  0.475473  0.475473  0.472357      8.000000
 


--------------------------------------------------------------------------------------------------------




 Dimension of arrays:
   k-points           NKPTS =    288   k-points in BZ     NKDIM =    288   number of bands    NBANDS=    124
   number of dos      NEDOS =   1500   number of ions     NIONS =     16
   non local maximal  LDIM  =      6   non local SUM 2l+1 LMDIM =     18
   total plane-waves  NPLWV =  74088
   max r-space proj   IRMAX =   5406   max aug-charges    IRDMAX= 124414
   dimension x,y,z NGX =    42 NGY =   42 NGZ =   42
   dimension x,y,z NGXF=    84 NGYF=   84 NGZF=   84
   support grid    NGXF=   168 NGYF=  168 NGZF=  168
   ions per type =               8   4   4
   NGX,Y,Z   is equivalent  to a cutoff of  12.27, 12.27, 12.19 a.u.
   NGXF,Y,Z  is equivalent  to a cutoff of  24.53, 24.53, 24.37 a.u.

 SYSTEM =  NiCoMnGa                                
 POSCAR =  Heusler tetragonal                      

 Startparameter for this run:
   NWRITE =      2    write-flag & timer
   PREC   = accura    normal or accurate (medium, high low for compatibility)
   ISTART =      0    job   : 0-new  1-cont  2-samecut
   ICHARG =      2    charge: 1-file 2-atom 10-const
   ISPIN  =      2    spin polarized calculation?
   LNONCOLLINEAR =      F non collinear calculations
   LSORBIT =      F    spin-orbit coupling
   INIWAV =      1    electr: 0-lowe 1-rand  2-diag
   LASPH  =      F    aspherical Exc in radial PAW
   METAGGA=      F    non-selfconsistent MetaGGA calc.

 Electronic Relaxation 1
   ENCUT  =  500.0 eV  36.75 Ry    6.06 a.u.  10.38 10.38 10.45*2*pi/ulx,y,z
   ENINI  =  500.0     initial cutoff
   ENAUG  =  578.3 eV  augmentation charge cutoff
   NELM   =    160;   NELMIN=  2; NELMDL= -6     # of ELM steps 
   EDIFF  = 0.1E-05   stopping-criterion for ELM
   LREAL  =      T    real-space projection
   NLSPLINE    = F    spline interpolate recip. space projectors
   LCOMPAT=      F    compatible to vasp.4.4
   GGA_COMPAT  = T    GGA compatible to vasp.4.4-vasp.4.6
   LMAXPAW     = -100 max onsite density
   LMAXMIX     =    6 max onsite mixed and CHGCAR
   VOSKOWN=      0    Vosko Wilk Nusair interpolation
   ROPT   =   -0.00025  -0.00025  -0.00025
 Ionic relaxation
   EDIFFG = -.5E-02   stopping-criterion for IOM
   NSW    =      0    number of steps for IOM
   NBLOCK =      1;   KBLOCK =      1    inner block; outer block 
   IBRION =     -1    ionic relax: 0-MD 1-quasi-New 2-CG
   NFREE  =      1    steps in history (QN), initial steepest desc. (CG)
   ISIF   =      3    stress and relaxation
   IWAVPR =     10    prediction:  0-non 1-charg 2-wave 3-comb
   ISYM   =      2    0-nonsym 1-usesym 2-fastsym
   LCORR  =      T    Harris-Foulkes like correction to forces

   POTIM  = 0.0100    time-step for ionic-motion
   TEIN   =    0.0    initial temperature
   TEBEG  =    0.0;   TEEND  =   0.0 temperature during run
   SMASS  =  -3.00    Nose mass-parameter (am)
   estimated Nose-frequenzy (Omega)   =  0.10E-29 period in steps = 0.63E+48 mass=  -0.741E-27a.u.
   SCALEE = 1.0000    scale energy and forces
   NPACO  =    256;   APACO  = 16.0  distance and # of slots for P.C.
   PSTRESS=    0.0 pullay stress

  Mass of Ions in am
   POMASS =  55.85 58.93 26.98
  Ionic Valenz
   ZVAL   =  14.00 15.00  3.00
  Atomic Wigner-Seitz radii
   RWIGS  =   1.16  1.16  1.16
  virtual crystal weights 
   VCA    =   1.00  1.00  1.00
   NELECT =     184.0000    total number of electrons
   NUPDOWN=      -1.0000    fix difference up-down

 DOS related values:
   EMIN   =  10.00;   EMAX   =-10.00  energy-range for DOS
   EFERMI =   0.00
   ISMEAR =     1;   SIGMA  =   0.10  broadening in eV -4-tet -1-fermi 0-gaus

 Electronic relaxation 2 (details)
   IALGO  =     38    algorithm
   LDIAG  =      T    sub-space diagonalisation (order eigenvalues)
   LSUBROT=      F    optimize rotation matrix (better conditioning)
   TURBO    =      0    0=normal 1=particle mesh
   IRESTART =      0    0=no restart 2=restart with 2 vectors
   NREBOOT  =      0    no. of reboots
   NMIN     =      0    reboot dimension
   EREF     =   0.00    reference energy to select bands
   IMIX   =      4    mixing-type and parameters
     AMIX     =   0.18;   BMIX     =  0.00
     AMIX_MAG =   0.26;   BMIX_MAG =  0.01
     AMIN     =   0.10
     WC   =   100.;   INIMIX=   1;  MIXPRE=   1;  MAXMIX= -45

 Intra band minimization:
   WEIMIN = 0.0000     energy-eigenvalue tresh-hold
   EBREAK =  0.20E-08  absolut break condition
   DEPER  =   0.30     relativ break condition  

   TIME   =   0.40     timestep for ELM

  volume/ion in A,a.u.               =      11.61        78.32
  Fermi-wavevector in a.u.,A,eV,Ry     =   1.632125  3.084268 36.243620  2.663831
  Thomas-Fermi vector in A             =   2.724147
 
 Write flags
   LWAVE        =      F    write WAVECAR
   LDOWNSAMPLE  =      F    k-point downsampling of WAVECAR
   LCHARG       =      T    write CHGCAR
   LVTOT        =      F    write LOCPOT, total local potential
   LVHAR        =      F    write LOCPOT, Hartree potential only
   LELF         =      F    write electronic localiz. function (ELF)
   LORBIT       =     10    0 simple, 1 ext, 2 COOP (PROOUT), +10 PAW based schemes


 Dipole corrections
   LMONO  =      F    monopole corrections only (constant potential shift)
   LDIPOL =      F    correct potential (dipole corrections)
   IDIPOL =      0    1-x, 2-y, 3-z, 4-all directions 
   EPSILON=  1.0000000 bulk dielectric constant

 Exchange correlation treatment:
   GGA     =    --    GGA type
   LEXCH   =     8    internal setting for exchange type
   VOSKOWN=      0    Vosko Wilk Nusair interpolation
   LHFCALC =     F    Hartree Fock is set to
   LHFONE  =     F    Hartree Fock one center treatment
   AEXX    =    0.0000 exact exchange contribution

 Linear response parameters
   LEPSILON=     F    determine dielectric tensor
   LRPA    =     F    only Hartree local field effects (RPA)
   LNABLA  =     F    use nabla operator in PAW spheres
   LVEL    =     F    velocity operator in full k-point grid
   LINTERFAST=   F  fast interpolation
   KINTER  =     0    interpolate to denser k-point grid
   CSHIFT  =0.1000    complex shift for real part using Kramers Kronig
   OMEGAMAX=  -1.0    maximum frequency
   DEG_THRESHOLD= 0.2000000E-02 threshold for treating states as degnerate
   RTIME   =   -0.100 relaxation time in fs
  (WPLASMAI=    0.000 imaginary part of plasma frequency in eV, 0.658/RTIME)
   DFIELD  = 0.0000000 0.0000000 0.0000000 field for delta impulse in time
 
 Orbital magnetization related:
   ORBITALMAG=     F  switch on orbital magnetization
   LCHIMAG   =     F  perturbation theory with respect to B field
   DQ        =  0.001000  dq finite difference perturbation B field
   LLRAUG    =     F  two centre corrections for induced B field



--------------------------------------------------------------------------------------------------------


 Static calculation
 charge density and potential will be updated during run
 spin polarized calculation
 Variant of blocked Davidson
 Davidson routine will perform the subspace rotation
 perform sub-space diagonalisation
    after iterative eigenvector-optimisation
 modified Broyden-mixing scheme, WC =      100.0
 initial mixing is a Kerker type mixing with AMIX =  0.1800 and BMIX =      0.0025
 Hartree-type preconditioning will be used
 using additional bands           32
 real space projection scheme for non local part
 use partial core corrections
 calculate Harris-corrections to forces 
   (improved forces if not selfconsistent)
 use gradient corrections 
 use of overlap-Matrix (Vanderbilt PP)
 Methfessel and Paxton  Order N= 1 SIGMA  =   0.10


--------------------------------------------------------------------------------------------------------


  energy-cutoff  :      500.00
  volume of cell :      185.69
      direct lattice vectors                 reciprocal lattice vectors
     5.692576407  0.000000000  0.000000000     0.175667383  0.000000000  0.000000000
     0.000000000  5.692576407  0.000000000     0.000000000  0.175667383  0.000000000
     0.000000000  0.000000000  5.730131486     0.000000000  0.000000000  0.174516065

  length of vectors
     5.692576407  5.692576407  5.730131486     0.175667383  0.175667383  0.174516065


 
 k-points in units of 2pi/SCALE and weight: Ni7CoMn5CrSn2                           
   0.00000000  0.00000000  0.00000000       0.000
   0.06792472  0.00000000  0.00000000       0.001
   0.13584944  0.00000000  0.00000000       0.001
   0.20377416  0.00000000  0.00000000       0.001
   0.27169889  0.00000000  0.00000000       0.001
   0.33962361  0.00000000  0.00000000       0.001
   0.40754833  0.00000000  0.00000000       0.001
   0.47547305  0.00000000  0.00000000       0.001
   0.06792472  0.06792472  0.00000000       0.001
   0.13584944  0.06792472  0.00000000       0.002
   0.20377416  0.06792472  0.00000000       0.002
   0.27169889  0.06792472  0.00000000       0.002
   0.33962361  0.06792472  0.00000000       0.002
   0.40754833  0.06792472  0.00000000       0.002
   0.47547305  0.06792472  0.00000000       0.002
   0.13584944  0.13584944  0.00000000       0.001
   0.20377416  0.13584944  0.00000000       0.002
   0.27169889  0.13584944  0.00000000       0.002
   0.33962361  0.13584944  0.00000000       0.002
   0.40754833  0.13584944  0.00000000       0.002
   0.47547305  0.13584944  0.00000000       0.002
   0.20377416  0.20377416  0.00000000       0.001
   0.27169889  0.20377416  0.00000000       0.002
   0.33962361  0.20377416  0.00000000       0.002
   0.40754833  0.20377416  0.00000000       0.002
   0.47547305  0.20377416  0.00000000       0.002
   0.27169889  0.27169889  0.00000000       0.001
   0.33962361  0.27169889  0.00000000       0.002
   0.40754833  0.27169889  0.00000000       0.002
   0.47547305  0.27169889  0.00000000       0.002
   0.33962361  0.33962361  0.00000000       0.001
   0.40754833  0.33962361  0.00000000       0.002
   0.47547305  0.33962361  0.00000000       0.002
   0.40754833  0.40754833  0.00000000       0.001
   0.47547305  0.40754833  0.00000000       0.002
   0.47547305  0.47547305  0.00000000       0.001
   0.00000000  0.00000000  0.06747955       0.001
   0.06792472  0.00000000  0.06747955       0.002
   0.13584944  0.00000000  0.06747955       0.002
   0.20377416  0.00000000  0.06747955       0.002
   0.27169889  0.00000000  0.06747955       0.002
   0.33962361  0.00000000  0.06747955       0.002
   0.40754833  0.00000000  0.06747955       0.002
   0.47547305  0.00000000  0.06747955       0.002
   0.06792472  0.06792472  0.06747955       0.002
   0.13584944  0.06792472  0.06747955       0.005
   0.20377416  0.06792472  0.06747955       0.005
   0.27169889  0.06792472  0.06747955       0.005
   0.33962361  0.06792472  0.06747955       0.005
   0.40754833  0.06792472  0.06747955       0.005
   0.47547305  0.06792472  0.06747955       0.005
   0.13584944  0.13584944  0.06747955       0.002
   0.20377416  0.13584944  0.06747955       0.005
   0.27169889  0.13584944  0.06747955       0.005
   0.33962361  0.13584944  0.06747955       0.005
   0.40754833  0.13584944  0.06747955       0.005
   0.47547305  0.13584944  0.06747955       0.005
   0.20377416  0.20377416  0.06747955       0.002
   0.27169889  0.20377416  0.06747955       0.005
   0.33962361  0.20377416  0.06747955       0.005
   0.40754833  0.20377416  0.06747955       0.005
   0.47547305  0.20377416  0.06747955       0.005
   0.27169889  0.27169889  0.06747955       0.002
   0.33962361  0.27169889  0.06747955       0.005
   0.40754833  0.27169889  0.06747955       0.005
   0.47547305  0.27169889  0.06747955       0.005
   0.33962361  0.33962361  0.06747955       0.002
   0.40754833  0.33962361  0.06747955       0.005
   0.47547305  0.33962361  0.06747955       0.005
   0.40754833  0.40754833  0.06747955       0.002
   0.47547305  0.40754833  0.06747955       0.005
   0.47547305  0.47547305  0.06747955       0.002
   0.00000000  0.00000000  0.13495909       0.001
   0.06792472  0.00000000  0.13495909       0.002
   0.13584944  0.00000000  0.13495909       0.002
   0.20377416  0.00000000  0.13495909       0.002
   0.27169889  0.00000000  0.13495909       0.002
   0.33962361  0.00000000  0.13495909       0.002
   0.40754833  0.00000000  0.13495909       0.002
   0.47547305  0.00000000  0.13495909       0.002
   0.06792472  0.06792472  0.13495909       0.002
   0.13584944  0.06792472  0.13495909       0.005
   0.20377416  0.06792472  0.13495909       0.005
   0.27169889  0.06792472  0.13495909       0.005
   0.33962361  0.06792472  0.13495909       0.005
   0.40754833  0.06792472  0.13495909       0.005
   0.47547305  0.06792472  0.13495909       0.005
   0.13584944  0.13584944  0.13495909       0.002
   0.20377416  0.13584944  0.13495909       0.005
   0.27169889  0.13584944  0.13495909       0.005
   0.33962361  0.13584944  0.13495909       0.005
   0.40754833  0.13584944  0.13495909       0.005
   0.47547305  0.13584944  0.13495909       0.005
   0.20377416  0.20377416  0.13495909       0.002
   0.27169889  0.20377416  0.13495909       0.005
   0.33962361  0.20377416  0.13495909       0.005
   0.40754833  0.20377416  0.13495909       0.005
   0.47547305  0.20377416  0.13495909       0.005
   0.27169889  0.27169889  0.13495909       0.002
   0.33962361  0.27169889  0.13495909       0.005
   0.40754833  0.27169889  0.13495909       0.005
   0.47547305  0.27169889  0.13495909       0.005
   0.33962361  0.33962361  0.13495909       0.002
   0.40754833  0.33962361  0.13495909       0.005
   0.47547305  0.33962361  0.13495909       0.005
   0.40754833  0.40754833  0.13495909       0.002
   0.47547305  0.40754833  0.13495909       0.005
   0.47547305  0.47547305  0.13495909       0.002
   0.00000000  0.00000000  0.20243864       0.001
   0.06792472  0.00000000  0.20243864       0.002
   0.13584944  0.00000000  0.20243864       0.002
   0.20377416  0.00000000  0.20243864       0.002
   0.27169889  0.00000000  0.20243864       0.002
   0.33962361  0.00000000  0.20243864       0.002
   0.40754833  0.00000000  0.20243864       0.002
   0.47547305  0.00000000  0.20243864       0.002
   0.06792472  0.06792472  0.20243864       0.002
   0.13584944  0.06792472  0.20243864       0.005
   0.20377416  0.06792472  0.20243864       0.005
   0.27169889  0.06792472  0.20243864       0.005
   0.33962361  0.06792472  0.20243864       0.005
   0.40754833  0.06792472  0.20243864       0.005
   0.47547305  0.06792472  0.20243864       0.005
   0.13584944  0.13584944  0.20243864       0.002
   0.20377416  0.13584944  0.20243864       0.005
   0.27169889  0.13584944  0.20243864       0.005
   0.33962361  0.13584944  0.20243864       0.005
   0.40754833  0.13584944  0.20243864       0.005
   0.47547305  0.13584944  0.20243864       0.005
   0.20377416  0.20377416  0.20243864       0.002
   0.27169889  0.20377416  0.20243864       0.005
   0.33962361  0.20377416  0.20243864       0.005
   0.40754833  0.20377416  0.20243864       0.005
   0.47547305  0.20377416  0.20243864       0.005
   0.27169889  0.27169889  0.20243864       0.002
   0.33962361  0.27169889  0.20243864       0.005
   0.40754833  0.27169889  0.20243864       0.005
   0.47547305  0.27169889  0.20243864       0.005
   0.33962361  0.33962361  0.20243864       0.002
   0.40754833  0.33962361  0.20243864       0.005
   0.47547305  0.33962361  0.20243864       0.005
   0.40754833  0.40754833  0.20243864       0.002
   0.47547305  0.40754833  0.20243864       0.005
   0.47547305  0.47547305  0.20243864       0.002
   0.00000000  0.00000000  0.26991818       0.001
   0.06792472  0.00000000  0.26991818       0.002
   0.13584944  0.00000000  0.26991818       0.002
   0.20377416  0.00000000  0.26991818       0.002
   0.27169889  0.00000000  0.26991818       0.002
   0.33962361  0.00000000  0.26991818       0.002
   0.40754833  0.00000000  0.26991818       0.002
   0.47547305  0.00000000  0.26991818       0.002
   0.06792472  0.06792472  0.26991818       0.002
   0.13584944  0.06792472  0.26991818       0.005
   0.20377416  0.06792472  0.26991818       0.005
   0.27169889  0.06792472  0.26991818       0.005
   0.33962361  0.06792472  0.26991818       0.005
   0.40754833  0.06792472  0.26991818       0.005
   0.47547305  0.06792472  0.26991818       0.005
   0.13584944  0.13584944  0.26991818       0.002
   0.20377416  0.13584944  0.26991818       0.005
   0.27169889  0.13584944  0.26991818       0.005
   0.33962361  0.13584944  0.26991818       0.005
   0.40754833  0.13584944  0.26991818       0.005
   0.47547305  0.13584944  0.26991818       0.005
   0.20377416  0.20377416  0.26991818       0.002
   0.27169889  0.20377416  0.26991818       0.005
   0.33962361  0.20377416  0.26991818       0.005
   0.40754833  0.20377416  0.26991818       0.005
   0.47547305  0.20377416  0.26991818       0.005
   0.27169889  0.27169889  0.26991818       0.002
   0.33962361  0.27169889  0.26991818       0.005
   0.40754833  0.27169889  0.26991818       0.005
   0.47547305  0.27169889  0.26991818       0.005
   0.33962361  0.33962361  0.26991818       0.002
   0.40754833  0.33962361  0.26991818       0.005
   0.47547305  0.33962361  0.26991818       0.005
   0.40754833  0.40754833  0.26991818       0.002
   0.47547305  0.40754833  0.26991818       0.005
   0.47547305  0.47547305  0.26991818       0.002
   0.00000000  0.00000000  0.33739773       0.001
   0.06792472  0.00000000  0.33739773       0.002
   0.13584944  0.00000000  0.33739773       0.002
   0.20377416  0.00000000  0.33739773       0.002
   0.27169889  0.00000000  0.33739773       0.002
   0.33962361  0.00000000  0.33739773       0.002
   0.40754833  0.00000000  0.33739773       0.002
   0.47547305  0.00000000  0.33739773       0.002
   0.06792472  0.06792472  0.33739773       0.002
   0.13584944  0.06792472  0.33739773       0.005
   0.20377416  0.06792472  0.33739773       0.005
   0.27169889  0.06792472  0.33739773       0.005
   0.33962361  0.06792472  0.33739773       0.005
   0.40754833  0.06792472  0.33739773       0.005
   0.47547305  0.06792472  0.33739773       0.005
   0.13584944  0.13584944  0.33739773       0.002
   0.20377416  0.13584944  0.33739773       0.005
   0.27169889  0.13584944  0.33739773       0.005
   0.33962361  0.13584944  0.33739773       0.005
   0.40754833  0.13584944  0.33739773       0.005
   0.47547305  0.13584944  0.33739773       0.005
   0.20377416  0.20377416  0.33739773       0.002
   0.27169889  0.20377416  0.33739773       0.005
   0.33962361  0.20377416  0.33739773       0.005
   0.40754833  0.20377416  0.33739773       0.005
   0.47547305  0.20377416  0.33739773       0.005
   0.27169889  0.27169889  0.33739773       0.002
   0.33962361  0.27169889  0.33739773       0.005
   0.40754833  0.27169889  0.33739773       0.005
   0.47547305  0.27169889  0.33739773       0.005
   0.33962361  0.33962361  0.33739773       0.002
   0.40754833  0.33962361  0.33739773       0.005
   0.47547305  0.33962361  0.33739773       0.005
   0.40754833  0.40754833  0.33739773       0.002
   0.47547305  0.40754833  0.33739773       0.005
   0.47547305  0.47547305  0.33739773       0.002
   0.00000000  0.00000000  0.40487727       0.001
   0.06792472  0.00000000  0.40487727       0.002
   0.13584944  0.00000000  0.40487727       0.002
   0.20377416  0.00000000  0.40487727       0.002
   0.27169889  0.00000000  0.40487727       0.002
   0.33962361  0.00000000  0.40487727       0.002
   0.40754833  0.00000000  0.40487727       0.002
   0.47547305  0.00000000  0.40487727       0.002
   0.06792472  0.06792472  0.40487727       0.002
   0.13584944  0.06792472  0.40487727       0.005
   0.20377416  0.06792472  0.40487727       0.005
   0.27169889  0.06792472  0.40487727       0.005
   0.33962361  0.06792472  0.40487727       0.005
   0.40754833  0.06792472  0.40487727       0.005
   0.47547305  0.06792472  0.40487727       0.005
   0.13584944  0.13584944  0.40487727       0.002
   0.20377416  0.13584944  0.40487727       0.005
   0.27169889  0.13584944  0.40487727       0.005
   0.33962361  0.13584944  0.40487727       0.005
   0.40754833  0.13584944  0.40487727       0.005
   0.47547305  0.13584944  0.40487727       0.005
   0.20377416  0.20377416  0.40487727       0.002
   0.27169889  0.20377416  0.40487727       0.005
   0.33962361  0.20377416  0.40487727       0.005
   0.40754833  0.20377416  0.40487727       0.005
   0.47547305  0.20377416  0.40487727       0.005
   0.27169889  0.27169889  0.40487727       0.002
   0.33962361  0.27169889  0.40487727       0.005
   0.40754833  0.27169889  0.40487727       0.005
   0.47547305  0.27169889  0.40487727       0.005
   0.33962361  0.33962361  0.40487727       0.002
   0.40754833  0.33962361  0.40487727       0.005
   0.47547305  0.33962361  0.40487727       0.005
   0.40754833  0.40754833  0.40487727       0.002
   0.47547305  0.40754833  0.40487727       0.005
   0.47547305  0.47547305  0.40487727       0.002
   0.00000000  0.00000000  0.47235682       0.001
   0.06792472  0.00000000  0.47235682       0.002
   0.13584944  0.00000000  0.47235682       0.002
   0.20377416  0.00000000  0.47235682       0.002
   0.27169889  0.00000000  0.47235682       0.002
   0.33962361  0.00000000  0.47235682       0.002
   0.40754833  0.00000000  0.47235682       0.002
   0.47547305  0.00000000  0.47235682       0.002
   0.06792472  0.06792472  0.47235682       0.002
   0.13584944  0.06792472  0.47235682       0.005
   0.20377416  0.06792472  0.47235682       0.005
   0.27169889  0.06792472  0.47235682       0.005
   0.33962361  0.06792472  0.47235682       0.005
   0.40754833  0.06792472  0.47235682       0.005
   0.47547305  0.06792472  0.47235682       0.005
   0.13584944  0.13584944  0.47235682       0.002
   0.20377416  0.13584944  0.47235682       0.005
   0.27169889  0.13584944  0.47235682       0.005
   0.33962361  0.13584944  0.47235682       0.005
   0.40754833  0.13584944  0.47235682       0.005
   0.47547305  0.13584944  0.47235682       0.005
   0.20377416  0.20377416  0.47235682       0.002
   0.27169889  0.20377416  0.47235682       0.005
   0.33962361  0.20377416  0.47235682       0.005
   0.40754833  0.20377416  0.47235682       0.005
   0.47547305  0.20377416  0.47235682       0.005
   0.27169889  0.27169889  0.47235682       0.002
   0.33962361  0.27169889  0.47235682       0.005
   0.40754833  0.27169889  0.47235682       0.005
   0.47547305  0.27169889  0.47235682       0.005
   0.33962361  0.33962361  0.47235682       0.002
   0.40754833  0.33962361  0.47235682       0.005
   0.47547305  0.33962361  0.47235682       0.005
   0.40754833  0.40754833  0.47235682       0.002
   0.47547305  0.40754833  0.47235682       0.005
   0.47547305  0.47547305  0.47235682       0.002
 
 k-points in reciprocal lattice and weights: Ni7CoMn5CrSn2                           
   0.00000000  0.00000000  0.00000000       0.000
   0.06666667  0.00000000  0.00000000       0.001
   0.13333333  0.00000000  0.00000000       0.001
   0.20000000  0.00000000  0.00000000       0.001
   0.26666667  0.00000000  0.00000000       0.001
   0.33333333  0.00000000  0.00000000       0.001
   0.40000000  0.00000000  0.00000000       0.001
   0.46666667  0.00000000  0.00000000       0.001
   0.06666667  0.06666667  0.00000000       0.001
   0.13333333  0.06666667  0.00000000       0.002
   0.20000000  0.06666667  0.00000000       0.002
   0.26666667  0.06666667  0.00000000       0.002
   0.33333333  0.06666667  0.00000000       0.002
   0.40000000  0.06666667  0.00000000       0.002
   0.46666667  0.06666667  0.00000000       0.002
   0.13333333  0.13333333  0.00000000       0.001
   0.20000000  0.13333333  0.00000000       0.002
   0.26666667  0.13333333  0.00000000       0.002
   0.33333333  0.13333333  0.00000000       0.002
   0.40000000  0.13333333  0.00000000       0.002
   0.46666667  0.13333333  0.00000000       0.002
   0.20000000  0.20000000  0.00000000       0.001
   0.26666667  0.20000000  0.00000000       0.002
   0.33333333  0.20000000  0.00000000       0.002
   0.40000000  0.20000000  0.00000000       0.002
   0.46666667  0.20000000  0.00000000       0.002
   0.26666667  0.26666667  0.00000000       0.001
   0.33333333  0.26666667  0.00000000       0.002
   0.40000000  0.26666667  0.00000000       0.002
   0.46666667  0.26666667  0.00000000       0.002
   0.33333333  0.33333333  0.00000000       0.001
   0.40000000  0.33333333  0.00000000       0.002
   0.46666667  0.33333333  0.00000000       0.002
   0.40000000  0.40000000  0.00000000       0.001
   0.46666667  0.40000000  0.00000000       0.002
   0.46666667  0.46666667  0.00000000       0.001
   0.00000000  0.00000000  0.06666667       0.001
   0.06666667  0.00000000  0.06666667       0.002
   0.13333333  0.00000000  0.06666667       0.002
   0.20000000  0.00000000  0.06666667       0.002
   0.26666667  0.00000000  0.06666667       0.002
   0.33333333  0.00000000  0.06666667       0.002
   0.40000000  0.00000000  0.06666667       0.002
   0.46666667  0.00000000  0.06666667       0.002
   0.06666667  0.06666667  0.06666667       0.002
   0.13333333  0.06666667  0.06666667       0.005
   0.20000000  0.06666667  0.06666667       0.005
   0.26666667  0.06666667  0.06666667       0.005
   0.33333333  0.06666667  0.06666667       0.005
   0.40000000  0.06666667  0.06666667       0.005
   0.46666667  0.06666667  0.06666667       0.005
   0.13333333  0.13333333  0.06666667       0.002
   0.20000000  0.13333333  0.06666667       0.005
   0.26666667  0.13333333  0.06666667       0.005
   0.33333333  0.13333333  0.06666667       0.005
   0.40000000  0.13333333  0.06666667       0.005
   0.46666667  0.13333333  0.06666667       0.005
   0.20000000  0.20000000  0.06666667       0.002
   0.26666667  0.20000000  0.06666667       0.005
   0.33333333  0.20000000  0.06666667       0.005
   0.40000000  0.20000000  0.06666667       0.005
   0.46666667  0.20000000  0.06666667       0.005
   0.26666667  0.26666667  0.06666667       0.002
   0.33333333  0.26666667  0.06666667       0.005
   0.40000000  0.26666667  0.06666667       0.005
   0.46666667  0.26666667  0.06666667       0.005
   0.33333333  0.33333333  0.06666667       0.002
   0.40000000  0.33333333  0.06666667       0.005
   0.46666667  0.33333333  0.06666667       0.005
   0.40000000  0.40000000  0.06666667       0.002
   0.46666667  0.40000000  0.06666667       0.005
   0.46666667  0.46666667  0.06666667       0.002
   0.00000000  0.00000000  0.13333333       0.001
   0.06666667  0.00000000  0.13333333       0.002
   0.13333333  0.00000000  0.13333333       0.002
   0.20000000  0.00000000  0.13333333       0.002
   0.26666667  0.00000000  0.13333333       0.002
   0.33333333  0.00000000  0.13333333       0.002
   0.40000000  0.00000000  0.13333333       0.002
   0.46666667  0.00000000  0.13333333       0.002
   0.06666667  0.06666667  0.13333333       0.002
   0.13333333  0.06666667  0.13333333       0.005
   0.20000000  0.06666667  0.13333333       0.005
   0.26666667  0.06666667  0.13333333       0.005
   0.33333333  0.06666667  0.13333333       0.005
   0.40000000  0.06666667  0.13333333       0.005
   0.46666667  0.06666667  0.13333333       0.005
   0.13333333  0.13333333  0.13333333       0.002
   0.20000000  0.13333333  0.13333333       0.005
   0.26666667  0.13333333  0.13333333       0.005
   0.33333333  0.13333333  0.13333333       0.005
   0.40000000  0.13333333  0.13333333       0.005
   0.46666667  0.13333333  0.13333333       0.005
   0.20000000  0.20000000  0.13333333       0.002
   0.26666667  0.20000000  0.13333333       0.005
   0.33333333  0.20000000  0.13333333       0.005
   0.40000000  0.20000000  0.13333333       0.005
   0.46666667  0.20000000  0.13333333       0.005
   0.26666667  0.26666667  0.13333333       0.002
   0.33333333  0.26666667  0.13333333       0.005
   0.40000000  0.26666667  0.13333333       0.005
   0.46666667  0.26666667  0.13333333       0.005
   0.33333333  0.33333333  0.13333333       0.002
   0.40000000  0.33333333  0.13333333       0.005
   0.46666667  0.33333333  0.13333333       0.005
   0.40000000  0.40000000  0.13333333       0.002
   0.46666667  0.40000000  0.13333333       0.005
   0.46666667  0.46666667  0.13333333       0.002
   0.00000000  0.00000000  0.20000000       0.001
[...]
    114      15.2869      0.00000
    115      15.3616      0.00000
    116      15.4143      0.00000
    117      15.4521      0.00000
    118      15.5265      0.00000
    119      15.6004      0.00000
    120      15.6331      0.00000
    121      15.7026      0.00000
    122      15.8089      0.00000
    123      15.8936      0.00000
    124      15.9752      0.00000


--------------------------------------------------------------------------------------------------------


 soft charge-density along one line, spin component           1
         0         1         2         3         4         5         6         7         8         9
 total charge-density along one line
 
 soft charge-density along one line, spin component           2
         0         1         2         3         4         5         6         7         8         9
 total charge-density along one line
 
 pseudopotential strength for first ion, spin component:           1
-44.538  -0.000  -0.000   7.420   0.000   0.000   0.000   0.000
 -0.000 -44.540  -0.000   0.000   7.421   0.000   0.012   0.000
 -0.000  -0.000 -44.550   0.000   0.000   7.425  -0.000   0.012
  7.420   0.000   0.000   5.679   0.000   0.000  -0.000  -0.000
  0.000   7.421   0.000   0.000   5.678   0.000  -0.006  -0.000
  0.000   0.000   7.425   0.000   0.000   5.677   0.000  -0.006
  0.000   0.012  -0.000  -0.000  -0.006   0.000  -1.752  -0.000
  0.000   0.000   0.012  -0.000  -0.000  -0.006  -0.000  -1.731
  0.000   0.000  -0.000  -0.000  -0.000   0.000   0.000   0.000
  0.012   0.000   0.000  -0.006  -0.000  -0.000  -0.000  -0.000
 -0.000  -0.000  -0.000  -0.000   0.000   0.000  -0.000   0.000
  0.000   0.012  -0.000  -0.000  -0.006   0.000  -2.271  -0.000
  0.000   0.000   0.012  -0.000  -0.000  -0.006  -0.000  -2.251
  0.000   0.000  -0.000  -0.000  -0.000   0.000   0.000   0.000
  0.012   0.000   0.000  -0.006  -0.000  -0.000  -0.000  -0.000
 -0.000  -0.000  -0.000  -0.000   0.000   0.000  -0.000   0.000
  0.000  -0.000  -0.000   0.000  -0.000  -0.000   0.000   0.000
  0.000  -0.000  -0.000   0.000  -0.000  -0.000   0.000   0.000
 pseudopotential strength for first ion, spin component:           2
-42.996  -0.000  -0.000   6.769   0.000   0.000  -0.000  -0.000
 -0.000 -43.000   0.000   0.000   6.771  -0.000  -0.012   0.000
 -0.000   0.000 -43.008   0.000  -0.000   6.774  -0.000  -0.012
  6.769   0.000   0.000   5.858   0.000   0.000   0.000   0.000
  0.000   6.771  -0.000   0.000   5.857  -0.000   0.006   0.000
  0.000  -0.000   6.774   0.000  -0.000   5.857   0.000   0.006
 -0.000  -0.012  -0.000   0.000   0.006   0.000  -0.507   0.000
 -0.000   0.000  -0.012   0.000   0.000   0.006   0.000  -0.515
  0.000   0.000   0.000  -0.000  -0.000  -0.000   0.000   0.000
 -0.012  -0.000  -0.000   0.006   0.000   0.000  -0.000   0.000
 -0.000  -0.000   0.000   0.000   0.000  -0.000   0.000   0.000
 -0.000  -0.011  -0.000   0.000   0.006   0.000  -1.047   0.000
 -0.000   0.000  -0.011   0.000   0.000   0.006   0.000  -1.055
  0.000   0.000   0.000  -0.000  -0.000  -0.000   0.000   0.000
 -0.011  -0.000  -0.000   0.006   0.000   0.000  -0.000   0.000
 -0.000  -0.000   0.000   0.000   0.000  -0.000   0.000   0.000
  0.000   0.000   0.000   0.000   0.000   0.000   0.000   0.000
  0.000   0.000   0.000   0.000   0.000   0.000   0.000   0.000
 total augmentation occupancy for first ion, spin component:           1
  1.993   0.000   0.000  -0.023   0.000   0.000   0.000   0.000   0.000  -0.001   0.000   0.000   0.000   0.000   0.002   0.000
  0.000   1.993   0.000   0.000  -0.023   0.000  -0.002   0.000   0.000   0.000   0.000   0.002   0.000   0.000   0.000   0.000
  0.000   0.000   1.992   0.000   0.000  -0.023   0.000  -0.002   0.000   0.000   0.000   0.000   0.002   0.000   0.000   0.000
 -0.023   0.000   0.000   0.191   0.000   0.000   0.000   0.000   0.000  -0.003   0.000   0.000   0.000   0.000  -0.020   0.000
  0.000  -0.023   0.000   0.000   0.198   0.000  -0.005   0.000   0.000   0.000   0.000  -0.019   0.000   0.000   0.000   0.000
  0.000   0.000  -0.023   0.000   0.000   0.201   0.000  -0.006   0.000   0.000   0.000   0.000  -0.018   0.000   0.000   0.000
  0.000  -0.002   0.000   0.000  -0.005   0.000   1.959   0.000   0.000   0.000   0.000  -1.066   0.000   0.000   0.000   0.000
  0.000   0.000  -0.002   0.000   0.000  -0.006   0.000   1.951   0.000   0.000   0.000   0.000  -1.049   0.000   0.000   0.000
  0.000   0.000   0.000   0.000   0.000   0.000   0.000   0.000   2.017   0.000   0.044   0.000   0.000  -1.226   0.000  -0.034
 -0.001   0.000   0.000  -0.003   0.000   0.000   0.000   0.000   0.000   1.987   0.000   0.000   0.000   0.000  -1.102   0.000
  0.000   0.000   0.000   0.000   0.000   0.000   0.000   0.000   0.044   0.000   2.040   0.000   0.000  -0.034   0.000  -1.242
  0.000   0.002   0.000   0.000  -0.019   0.000  -1.066   0.000   0.000   0.000   0.000   1.595   0.000   0.000   0.000   0.000
  0.000   0.000   0.002   0.000   0.000  -0.018   0.000  -1.049   0.000   0.000   0.000   0.000   1.591   0.000   0.000   0.000
  0.000   0.000   0.000   0.000   0.000   0.000   0.000   0.000  -1.226   0.000  -0.034   0.000   0.000   1.660   0.000   0.017
  0.002   0.000   0.000  -0.020   0.000   0.000   0.000   0.000   0.000  -1.102   0.000   0.000   0.000   0.000   1.628   0.000
  0.000   0.000   0.000   0.000   0.000   0.000   0.000   0.000  -0.034   0.000  -1.242   0.000   0.000   0.017   0.000   1.671
  0.000   0.000   0.000   0.000   0.000   0.000   0.000   0.000   0.000   0.000  -0.019   0.000   0.000   0.003   0.000   0.026
  0.000   0.000   0.000   0.000   0.000   0.000   0.000   0.000  -0.001   0.000  -0.001   0.000   0.000   0.000   0.000   0.000
 total augmentation occupancy for first ion, spin component:           2
 -0.002   0.000   0.000  -0.006   0.000   0.000   0.000   0.000   0.000  -0.008   0.000   0.000   0.000   0.000   0.009   0.000
  0.000  -0.002   0.000   0.000  -0.007   0.000  -0.008   0.000   0.000   0.000   0.000   0.009   0.000   0.000   0.000   0.000
  0.000   0.000  -0.002   0.000   0.000  -0.007   0.000  -0.008   0.000   0.000   0.000   0.000   0.009   0.000   0.000   0.000
 -0.006   0.000   0.000  -0.009   0.000   0.000   0.000   0.000   0.000   0.069   0.000   0.000   0.000   0.000  -0.023   0.000
  0.000  -0.007   0.000   0.000  -0.014   0.000   0.066   0.000   0.000   0.000   0.000  -0.021   0.000   0.000   0.000   0.000
  0.000   0.000  -0.007   0.000   0.000  -0.015   0.000   0.064   0.000   0.000   0.000   0.000  -0.019   0.000   0.000   0.000
  0.000  -0.008   0.000   0.000   0.066   0.000   1.246   0.000   0.000   0.000   0.000  -0.354   0.000   0.000   0.000   0.000
  0.000   0.000  -0.008   0.000   0.000   0.064   0.000   1.212   0.000   0.000   0.000   0.000  -0.349   0.000   0.000   0.000
  0.000   0.000   0.000   0.000   0.000   0.000   0.000   0.000   1.512   0.000   0.041   0.000   0.000  -0.420   0.000  -0.010
 -0.008   0.000   0.000   0.069   0.000   0.000   0.000   0.000   0.000   1.310   0.000   0.000   0.000   0.000  -0.375   0.000
  0.000   0.000   0.000   0.000   0.000   0.000   0.000   0.000   0.041   0.000   1.505   0.000   0.000  -0.010   0.000  -0.415
  0.000   0.009   0.000   0.000  -0.021   0.000  -0.354   0.000   0.000   0.000   0.000  -0.147   0.000   0.000   0.000   0.000
  0.000   0.000   0.009   0.000   0.000  -0.019   0.000  -0.349   0.000   0.000   0.000   0.000  -0.149   0.000   0.000   0.000
  0.000   0.000   0.000   0.000   0.000   0.000   0.000   0.000  -0.420   0.000  -0.010   0.000   0.000  -0.168   0.000   0.003
  0.009   0.000   0.000  -0.023   0.000   0.000   0.000   0.000   0.000  -0.375   0.000   0.000   0.000   0.000  -0.149   0.000
  0.000   0.000   0.000   0.000   0.000   0.000   0.000   0.000  -0.010   0.000  -0.415   0.000   0.000   0.003   0.000  -0.170
  0.000   0.000   0.000   0.000   0.000   0.000   0.000   0.000  -0.001   0.000  -0.012   0.000   0.000  -0.004   0.000  -0.005
  0.000   0.000   0.000   0.000   0.000   0.000   0.000   0.000  -0.000   0.000  -0.001   0.000   0.000   0.000   0.000   0.000


------------------------ aborting loop because EDIFF is reached ----------------------------------------





 total charge

# of ion       s       p       d       tot
------------------------------------------
    1        0.352   6.369   6.188  12.910
    2        0.352   6.369   6.188  12.910
    3        0.353   6.368   6.198  12.919
    4        0.353   6.368   6.198  12.919
    5        0.381   6.376   6.038  12.795
    6        0.381   6.376   6.038  12.795
    7        0.381   6.376   6.038  12.795
    8        0.381   6.376   6.038  12.795
    9        0.449   6.486   7.412  14.346
   10        0.448   6.489   7.393  14.330
   11        0.449   6.486   7.412  14.346
   12        0.448   6.489   7.393  14.330
   13        0.408   0.431   0.000   0.839
   14        0.408   0.431   0.000   0.839
   15        0.408   0.431   0.000   0.839
   16        0.408   0.431   0.000   0.839
--------------------------------------------------
tot          6.360  78.651  78.536 163.547



 magnetization (x)

# of ion       s       p       d       tot
------------------------------------------
    1       -0.007  -0.027   1.814   1.780
    2       -0.007  -0.027   1.814   1.780
    3       -0.004  -0.023   1.779   1.752
    4       -0.004  -0.023   1.779   1.752
    5        0.003  -0.019   2.601   2.586
    6        0.003  -0.019   2.601   2.586
    7        0.003  -0.019   2.601   2.586
    8        0.003  -0.019   2.601   2.586
    9       -0.015  -0.038   1.019   0.966
   10       -0.018  -0.043   1.116   1.056
   11       -0.015  -0.038   1.019   0.966
   12       -0.018  -0.043   1.116   1.056
   13       -0.006  -0.041   0.000  -0.047
   14       -0.006  -0.041   0.000  -0.047
   15       -0.006  -0.041   0.000  -0.047
   16       -0.006  -0.041   0.000  -0.047
--------------------------------------------------
tot         -0.100  -0.499  21.863  21.264
 
    CHARGE:  cpu time    2.3681: real time    2.3710
    FORLOC:  cpu time    0.0000: real time    0.0032
    FORNL :  cpu time   14.7009: real time   14.7419
    STRESS:  cpu time   44.2148: real time   44.3473
    FORCOR:  cpu time    0.0320: real time    0.0346
    FORHAR:  cpu time    0.0080: real time    0.0057
    MIXING:  cpu time    0.0000: real time    0.0014
    OFIELD:  cpu time    0.0000: real time    0.0000

  FORCE on cell =-STRESS in cart. coord.  units (eV):
  Direction    XX          YY          ZZ          XY          YZ          ZX
  --------------------------------------------------------------------------------------
  Alpha Z  1122.75850  1122.75850  1122.75850
  Ewald   -7081.21259 -7081.21259 -7087.78638     0.00000     0.00000     0.00000
  Hartree  2878.40611  2878.40611  2875.76894    -0.00000    -0.00000    -0.00000
  E(xc)   -1151.58295 -1151.58295 -1151.58918    -0.00000    -0.00000    -0.00000
  Local    1090.08714  1090.08714  1096.51404    -0.00000     0.00000     0.00000
  n-local  -282.28597  -284.77890  -284.30319    -0.83034    -1.54552    -0.05627
  augment  1715.78713  1715.78713  1718.00039     0.00000     0.00003     0.00003
  Kinetic  1708.70525  1709.56752  1710.57114    -0.99639    -2.17866     0.13864
  Fock        0.00000     0.00000     0.00000     0.00000     0.00000     0.00000
  -------------------------------------------------------------------------------------
  Total      -0.15271    -0.15271    -0.06574     0.00000     0.00000     0.00000
  in kB      -1.31764    -1.31764    -0.56727     0.00000     0.00000     0.00000
  external pressure =       -1.07 kB  Pullay stress =        0.00 kB


 VOLUME and BASIS-vectors are now :
 -----------------------------------------------------------------------------
  energy-cutoff  :      500.00
  volume of cell :      185.69
      direct lattice vectors                 reciprocal lattice vectors
     5.692576407  0.000000000  0.000000000     0.175667383  0.000000000  0.000000000
     0.000000000  5.692576407  0.000000000     0.000000000  0.175667383  0.000000000
     0.000000000  0.000000000  5.730131486     0.000000000  0.000000000  0.174516065

  length of vectors
     5.692576407  5.692576407  5.730131486     0.175667383  0.175667383  0.174516065


 FORCES acting on ions
    electron-ion (+dipol)            ewald-force                    non-local-force                 convergence-correction
 -----------------------------------------------------------------------------------------------
   0.648E-08 -.211E-08 -.409E-09   -.355E-13 -.355E-13 0.568E-13   0.000E+00 0.000E+00 0.000E+00   -.935E-12 0.161E-12 0.204E-12
   0.212E-08 -.648E-08 0.377E-09   -.853E-13 -.426E-13 -.213E-13   0.000E+00 0.000E+00 0.000E+00   0.130E-13 -.172E-12 0.130E-12
   0.595E-08 -.212E-08 -.403E-09   0.568E-13 0.924E-13 -.853E-13   0.000E+00 0.000E+00 0.000E+00   0.135E-11 0.362E-13 -.936E-12
   0.212E-08 -.595E-08 0.387E-09   0.185E-12 0.426E-13 -.497E-13   0.000E+00 0.000E+00 0.000E+00   -.110E-11 -.777E-13 0.126E-11
   -.235E+02 0.235E+02 0.122E-10   0.241E+02 -.241E+02 -.285E-13   -.545E+00 0.545E+00 -.867E-18   -.204E-02 0.204E-02 0.206E-12
   -.235E+02 -.235E+02 -.139E-06   0.241E+02 0.241E+02 0.835E-13   -.545E+00 -.545E+00 0.434E-18   -.204E-02 -.204E-02 -.220E-11
   0.235E+02 0.235E+02 0.139E-06   -.241E+02 -.241E+02 -.296E-13   0.545E+00 0.545E+00 0.130E-17   0.204E-02 0.204E-02 0.337E-11
   0.235E+02 -.235E+02 -.409E-10   -.241E+02 0.241E+02 0.569E-13   0.545E+00 -.545E+00 0.260E-17   0.204E-02 -.204E-02 0.161E-12
   -.531E-07 -.368E-07 -.170E-09   0.355E-13 -.924E-13 -.426E-13   0.000E+00 0.000E+00 0.000E+00   0.386E-12 0.228E-12 0.186E-12
   0.368E-07 -.499E-07 0.172E-09   0.156E-12 -.284E-13 0.000E+00   0.000E+00 0.000E+00 0.000E+00   0.914E-13 0.145E-12 0.136E-11
   0.368E-07 0.531E-07 0.172E-09   0.426E-13 -.426E-13 0.497E-13   0.000E+00 0.000E+00 0.000E+00   0.121E-11 -.248E-12 0.157E-12
   0.499E-07 -.367E-07 -.179E-09   0.711E-13 0.121E-12 0.000E+00   0.000E+00 0.000E+00 0.000E+00   -.205E-13 -.139E-12 -.932E-12
   -.815E+01 0.815E+01 0.739E-12   0.813E+01 -.813E+01 0.139E-13   0.162E-01 -.162E-01 0.000E+00   -.270E-03 0.270E-03 0.219E-13
   0.815E+01 0.815E+01 0.480E-05   -.813E+01 -.813E+01 0.216E-13   -.162E-01 -.162E-01 0.217E-18   0.270E-03 0.270E-03 -.533E-13
   -.815E+01 -.815E+01 -.480E-05   0.813E+01 0.813E+01 0.239E-16   0.162E-01 0.162E-01 0.217E-18   -.270E-03 -.270E-03 -.356E-13
   0.815E+01 -.815E+01 -.208E-11   -.813E+01 0.813E+01 -.712E-14   -.162E-01 0.162E-01 0.108E-17   0.270E-03 -.270E-03 0.165E-13
 -----------------------------------------------------------------------------------------------
   -.113E-07 0.113E-07 -.121E-09   -.110E-12 -.178E-13 0.183E-13   0.000E+00 0.000E+00 0.499E-17   0.607E-12 -.104E-11 0.291E-11
 
 
 POSITION                                       TOTAL-FORCE (eV/Angst)
 -----------------------------------------------------------------------------------
      2.84629      0.00000      2.86507         0.000000      0.000000      0.000000
      2.84629      0.00000      0.00000         0.000000      0.000000      0.000000
      0.00000      0.00000      2.86507         0.000000      0.000000      0.000000
      2.84629      2.84629      0.00000         0.000000      0.000000      0.000000
      1.43091      1.41538      4.29760        -0.001035      0.001035      0.000000
      1.43091      4.27720      1.43253        -0.001035     -0.001035      0.000000
      4.26166      1.41538      1.43253         0.001035      0.001035      0.000000
      4.26166      4.27720      4.29760         0.001035     -0.001035      0.000000
      0.00000      2.84629      2.86507         0.000000      0.000000      0.000000
      0.00000      0.00000      0.00000         0.000000      0.000000      0.000000
      0.00000      2.84629      0.00000         0.000000      0.000000      0.000000
      2.84629      2.84629      2.86507         0.000000      0.000000      0.000000
      1.40523      1.44106      1.43253        -0.000104      0.000104     -0.000000
      4.28734      1.44106      4.29760         0.000104      0.000104      0.000000
      1.40523      4.25152      4.29760        -0.000104     -0.000104      0.000000
      4.28734      4.25152      1.43253         0.000104     -0.000104     -0.000000
 -----------------------------------------------------------------------------------
    total drift:                               -0.000000      0.000000     -0.000000


--------------------------------------------------------------------------------------------------------



  FREE ENERGIE OF THE ION-ELECTRON SYSTEM (eV)
  ---------------------------------------------------
  free  energy   TOTEN  =      -113.51582777 eV

  energy  without entropy=     -113.51540863  energy(sigma->0) =     -113.51568805
 


--------------------------------------------------------------------------------------------------------


    POTLOK:  cpu time    0.0840: real time    0.0842


--------------------------------------------------------------------------------------------------------


     LOOP+:  cpu time 1810.1451: real time 1815.8908
    4ORBIT:  cpu time    0.0000: real time    0.0000



 total charge

# of ion       s       p       d       tot
------------------------------------------
    1        0.352   6.369   6.188  12.910
    2        0.352   6.369   6.188  12.910
    3        0.353   6.368   6.198  12.919
    4        0.353   6.368   6.198  12.919
    5        0.381   6.376   6.038  12.795
    6        0.381   6.376   6.038  12.795
    7        0.381   6.376   6.038  12.795
    8        0.381   6.376   6.038  12.795
    9        0.449   6.486   7.412  14.346
   10        0.448   6.489   7.393  14.330
   11        0.449   6.486   7.412  14.346
   12        0.448   6.489   7.393  14.330
   13        0.408   0.431   0.000   0.839
   14        0.408   0.431   0.000   0.839
   15        0.408   0.431   0.000   0.839
   16        0.408   0.431   0.000   0.839
--------------------------------------------------
tot          6.360  78.651  78.536 163.547



 magnetization (x)

# of ion       s       p       d       tot
------------------------------------------
    1       -0.007  -0.027   1.814   1.780
    2       -0.007  -0.027   1.814   1.780
    3       -0.004  -0.023   1.779   1.752
    4       -0.004  -0.023   1.779   1.752
    5        0.003  -0.019   2.601   2.586
    6        0.003  -0.019   2.601   2.586
    7        0.003  -0.019   2.601   2.586
    8        0.003  -0.019   2.601   2.586
    9       -0.015  -0.038   1.019   0.966
   10       -0.018  -0.043   1.116   1.056
   11       -0.015  -0.038   1.019   0.966
   12       -0.018  -0.043   1.116   1.056
   13       -0.006  -0.041   0.000  -0.047
   14       -0.006  -0.041   0.000  -0.047
   15       -0.006  -0.041   0.000  -0.047
   16       -0.006  -0.041   0.000  -0.047
--------------------------------------------------
tot         -0.100  -0.499  21.863  21.264
 

 total amount of memory used by VASP MPI-rank0   283315. kBytes
=======================================================================

   base      :      30000. kBytes
   nonlr-proj:       3385. kBytes
   fftplans  :       4038. kBytes
   grid      :       3529. kBytes
   one-center:         93. kBytes
   wavefun   :     242270. kBytes
 
  
  
 General timing and accounting informations for this job:
 ========================================================
  
                  Total CPU time used (sec):     1845.099
                            User time (sec):     1835.011
                          System time (sec):       10.089
                         Elapsed time (sec):     1851.374
  
                   Maximum memory used (kb):      342352.
                   Average memory used (kb):          N/A
  
                          Minor page faults:        86539
                          Major page faults:            0
                 Voluntary context switches:          442
