 vasp.6.2.0 18Jan21 (build Feb 24 2021 14:57:03) complex                        
  
 executed on             LinuxIFC date 2024.01.01  15:06:41
 running on   48 total cores
 distrk:  each k-point on   48 cores,    1 groups
 distr:  one band on NCORE=   8 cores,    6 groups


--------------------------------------------------------------------------------------------------------


 INCAR:
   SYSTEM = NiCoMnGa
   LCHARG = .TRUE.
   LWAVE = .FALSE.
   ICHARG = 2
   IBRION = 2
   ISIF = 3
   PREC = Accurate
   ENCUT = 500
   LREAL = A
   POTIM = 0.007
   EDIFF = 1e-6
   ISMEAR = 1
   SIGMA = 0.1
   ISPIN = 2
   LORBIT = 10
   ISYM = 2
   RWIGS = 8*1.164 4*1.302 4*1.217
   MAGMOM = 8*2.3 4*1.2 4*0
   NSW = 0
   NEDOS = 1500
   GGA_COMPAT = .TRUE.
   LMAXMIX = 6
   NELMDL = -6
   NELM = 160
   ADDGRID = .TRUE.
   NPAR = 6
   NCORE = 8
   AMIX = 0.18
   AMIX_MAG = 0.26
   BMIX = 0.0025
   BMIX_MAG = 0.005

 POTCAR:    PAW_PBE Fe_pv 02Aug2007               
 POTCAR:    PAW_PBE Co_pv 23Apr2009               
 POTCAR:       PAW_PBE Sn 08Apr2002               
 POTCAR:    PAW_PBE Fe_pv 02Aug2007               
   VRHFIN =Fe:  3pd7s1                                                                              
   LEXCH  = PE                                                                                      
   EATOM  =  2457.4239 eV,  180.6156 Ry                                                             
                                                                                                    
   TITEL  = PAW_PBE Fe_pv 02Aug2007                                                                 
   LULTRA =        F    use ultrasoft PP ?                                                          
   IUNSCR =        1    unscreen: 0-lin 1-nonlin 2-no                                               
   RPACOR =    1.750    partial core radius                                                         
   POMASS =   55.847; ZVAL   =   14.000    mass and valenz                                          
   RCORE  =    2.200    outmost cutoff radius                                                       
   RWIGS  =    2.200; RWIGS  =    1.164    wigner-seitz radius (au A)                               
   ENMAX  =  293.238; ENMIN  =  219.928 eV                                                          
   ICORE  =        3    local potential                                                             
   LCOR   =        T    correct aug charges                                                         
   LPAW   =        T    paw PP                                                                      
   EAUG   =  578.342                                                                                
   DEXC   =    0.000                                                                                
   RMAX   =    2.249    core radius for proj-oper                                                   
   RAUG   =    1.300    factor for augmentation sphere                                              
   RDEP   =    2.296    radius for radial grids                                                     
   RDEPT  =    1.766    core radius for aug-charge                                                  
                                                                                                    
   Atomic configuration                                                                             
    8 entries                                                                                       
     n  l   j            E        occ.                                                              
     1  0  0.50     -6993.8440   2.0000                                                             
     2  0  0.50      -814.6047   2.0000                                                             
     2  1  1.50      -693.3689   6.0000                                                             
     3  0  0.50       -89.4732   2.0000                                                             
     3  1  1.50       -55.6373   6.0000                                                             
     3  2  2.50        -3.8151   7.0000                                                             
     4  0  0.50        -4.2551   1.0000                                                             
     4  3  2.50        -1.3606   0.0000                                                             
   Description                                                                                      
     l       E           TYP  RCUT    TYP  RCUT                                                     
     1    -55.6372668     23  2.000                                                                 
     1     -5.4423304     23  2.000                                                                 
     2     -3.8151096     23  2.200                                                                 
     2     -5.1756922     23  2.200                                                                 
     0     -4.2550951     23  2.200                                                                 
     0     27.2116520     23  2.200                                                                 
     3     -1.3605826     23  2.200                                                                 
  local pseudopotential read in
  partial core-charges read in
  partial kinetic energy density read in
  atomic valenz-charges read in
  non local Contribution for L=           1  read in
    real space projection operators read in
  non local Contribution for L=           1  read in
    real space projection operators read in
  non local Contribution for L=           2  read in
    real space projection operators read in
  non local Contribution for L=           2  read in
    real space projection operators read in
  non local Contribution for L=           0  read in
    real space projection operators read in
  non local Contribution for L=           0  read in
    real space projection operators read in
    PAW grid and wavefunctions read in
 
   number of l-projection  operators is LMAX  =           6
   number of lm-projection operators is LMMAX =          18
 
 POTCAR:    PAW_PBE Co_pv 23Apr2009               
   VRHFIN =Co: 3pd7s1                                                                               
   LEXCH  = PE                                                                                      
   EATOM  =  2948.1334 eV,  216.6817 Ry                                                             
                                                                                                    
   TITEL  = PAW_PBE Co_pv 23Apr2009                                                                 
   LULTRA =        F    use ultrasoft PP ?                                                          
   IUNSCR =        1    unscreen: 0-lin 1-nonlin 2-no                                               
   RPACOR =    2.000    partial core radius                                                         
   POMASS =   58.933; ZVAL   =   15.000    mass and valenz                                          
   RCORE  =    2.300    outmost cutoff radius                                                       
   RWIGS  =    2.460; RWIGS  =    1.302    wigner-seitz radius (au A)                               
   ENMAX  =  271.042; ENMIN  =  203.281 eV                                                          
   ICORE  =        3    local potential                                                             
   LCOR   =        T    correct aug charges                                                         
   LPAW   =        T    paw PP                                                                      
   EAUG   =  543.066                                                                                
   DEXC   =    0.000                                                                                
   RMAX   =    2.360    core radius for proj-oper                                                   
   RAUG   =    1.300    factor for augmentation sphere                                              
   RDEP   =    2.393    radius for radial grids                                                     
   RDEPT  =    1.841    core radius for aug-charge                                                  
                                                                                                    
   Atomic configuration                                                                             
    8 entries                                                                                       
     n  l   j            E        occ.                                                              
     1  0  0.50     -7587.6674   2.0000                                                             
     2  0  0.50      -893.6084   2.0000                                                             
     2  1  1.50      -764.5805   6.0000                                                             
     3  0  0.50       -97.5973   2.0000                                                             
     3  1  1.50       -60.9648   6.0000                                                             
     3  2  2.50        -4.2382   8.0000                                                             
     4  0  0.50        -4.3746   1.0000                                                             
     4  3  2.50        -1.3606   0.0000                                                             
   Description                                                                                      
     l       E           TYP  RCUT    TYP  RCUT                                                     
     1    -60.9647990     23  2.000                                                                 
     1     -5.4423304     23  2.000                                                                 
     2     -4.2382362     23  2.300                                                                 
     2     -5.5988188     23  2.300                                                                 
     0     -4.3745797     23  2.300                                                                 
     0      5.7660125     23  2.300                                                                 
     3     -1.3605826     23  2.300                                                                 
  local pseudopotential read in
  partial core-charges read in
  partial kinetic energy density read in
  atomic valenz-charges read in
  non local Contribution for L=           1  read in
    real space projection operators read in
  non local Contribution for L=           1  read in
    real space projection operators read in
  non local Contribution for L=           2  read in
    real space projection operators read in
  non local Contribution for L=           2  read in
    real space projection operators read in
  non local Contribution for L=           0  read in
    real space projection operators read in
  non local Contribution for L=           0  read in
    real space projection operators read in
    PAW grid and wavefunctions read in
 
   number of l-projection  operators is LMAX  =           6
   number of lm-projection operators is LMMAX =          18
 
 POTCAR:       PAW_PBE Sn 08Apr2002               
   VRHFIN =Sn: s2p2                                                                                 
   LEXCH  = PE                                                                                      
   EATOM  =    94.0860 eV,    6.9151 Ry                                                             
                                                                                                    
   TITEL  = PAW_PBE Sn 08Apr2002                                                                    
   LULTRA =        F    use ultrasoft PP ?                                                          
   IUNSCR =        1    unscreen: 0-lin 1-nonlin 2-no                                               
   RPACOR =    2.000    partial core radius                                                         
   POMASS =  118.710; ZVAL   =    4.000    mass and valenz                                          
   RCORE  =    3.000    outmost cutoff radius                                                       
   RWIGS  =    2.960; RWIGS  =    1.566    wigner-seitz radius (au A)                               
   ENMAX  =  103.236; ENMIN  =   77.427 eV                                                          
   ICORE  =        3    local potential                                                             
   LCOR   =        T    correct aug charges                                                         
   LPAW   =        T    paw PP                                                                      
   EAUG   =  263.585                                                                                
   DEXC   =    0.000                                                                                
   RMAX   =    3.078    core radius for proj-oper                                                   
   RAUG   =    1.300    factor for augmentation sphere                                              
   RDEP   =    3.022    radius for radial grids                                                     
   RDEPT  =    2.655    core radius for aug-charge                                                  
                                                                                                    
   Atomic configuration                                                                             
   13 entries                                                                                       
     n  l   j            E        occ.                                                              
     1  0  0.50    -29007.2859   2.0000                                                             
     2  0  0.50     -4378.8056   2.0000                                                             
     2  1  1.50     -3930.4293   6.0000                                                             
     3  0  0.50      -845.0264   2.0000                                                             
     3  1  1.50      -698.5725   6.0000                                                             
     3  2  2.50      -473.2839  10.0000                                                             
     4  0  0.50      -133.9036   2.0000                                                             
     4  1  1.50       -89.6752   6.0000                                                             
     4  2  2.50       -25.8375  10.0000                                                             
     5  0  0.50       -10.5484   2.0000                                                             
     5  1  0.50        -3.6940   2.0000                                                             
     5  2  1.50        -1.3606   0.0000                                                             
     4  3  2.50        -4.0817   0.0000                                                             
   Description                                                                                      
     l       E           TYP  RCUT    TYP  RCUT                                                     
     0    -10.5483727     23  3.000                                                                 
     0     27.2116520     23  3.000                                                                 
     1     -3.6939829     23  3.000                                                                 
     1      1.9821976     23  3.000                                                                 
     2     -1.3605826     23  3.000                                                                 
     3     -2.7211652     23  3.000                                                                 
  local pseudopotential read in
  partial core-charges read in
  partial kinetic energy density read in
  atomic valenz-charges read in
  non local Contribution for L=           0  read in
    real space projection operators read in
  non local Contribution for L=           0  read in
    real space projection operators read in
  non local Contribution for L=           1  read in
    real space projection operators read in
  non local Contribution for L=           1  read in
    real space projection operators read in
  non local Contribution for L=           2  read in
    real space projection operators read in
    PAW grid and wavefunctions read in
 
   number of l-projection  operators is LMAX  =           5
   number of lm-projection operators is LMMAX =          13
 
 Optimization of the real space projectors (new method)

 maximal supplied QI-value         = 17.01
 optimisation between [QCUT,QGAM] = [ 11.40, 22.79] = [ 36.36,145.44] Ry 
 Optimized for a Real-space Cutoff    1.47 Angstroem

   l    n(q)    QCUT    max X(q) W(low)/X(q) W(high)/X(q)  e(spline) 
   1     10    11.395     4.267    0.90E-04    0.11E-03    0.18E-06
   1     10    11.395     5.750    0.14E-03    0.15E-03    0.25E-06
   2      9    11.395    53.656    0.13E-03    0.36E-04    0.15E-06
   2      9    11.395    49.521    0.14E-03    0.36E-04    0.15E-06
   0     10    11.395    31.246    0.58E-04    0.17E-05    0.98E-07
   0     10    11.395    12.201    0.41E-04    0.11E-05    0.82E-07
 Optimization of the real space projectors (new method)

 maximal supplied QI-value         = 16.25
 optimisation between [QCUT,QGAM] = [ 11.38, 22.75] = [ 36.24,144.96] Ry 
 Optimized for a Real-space Cutoff    1.47 Angstroem

   l    n(q)    QCUT    max X(q) W(low)/X(q) W(high)/X(q)  e(spline) 
   1     10    11.376     4.946    0.88E-04    0.16E-03    0.15E-06
   1     10    11.376     5.991    0.13E-03    0.24E-03    0.21E-06
   2      9    11.376    46.947    0.87E-04    0.91E-04    0.20E-06
   2      9    11.376    42.928    0.91E-04    0.94E-04    0.20E-06
   0     10    11.376    68.324    0.58E-04    0.21E-04    0.82E-07
   0     10    11.376    36.926    0.52E-04    0.19E-04    0.78E-07
 Optimization of the real space projectors (new method)

 maximal supplied QI-value         = 12.47
 optimisation between [QCUT,QGAM] = [ 11.35, 22.82] = [ 36.07,145.88] Ry 
 Optimized for a Real-space Cutoff    1.66 Angstroem

   l    n(q)    QCUT    max X(q) W(low)/X(q) W(high)/X(q)  e(spline) 
   0     11    11.350    14.688    0.21E-04    0.12E-04    0.45E-07
   0     11    11.350     7.308    0.36E-04    0.28E-04    0.12E-06
   1     11    11.350    45.102    0.58E-04    0.28E-04    0.33E-06
   1     11    11.350    30.691    0.55E-04    0.27E-04    0.31E-06
   2     10    11.350     7.156    0.77E-05    0.22E-04    0.47E-07
  PAW_PBE Fe_pv 02Aug2007               :
 energy of atom  1       EATOM=-2457.4239
 kinetic energy error for atom=    0.0069 (will be added to EATOM!!)
  PAW_PBE Co_pv 23Apr2009               :
 energy of atom  2       EATOM=-2948.1334
 kinetic energy error for atom=    0.0060 (will be added to EATOM!!)
     PAW_PBE Sn 08Apr2002               :
 energy of atom  3       EATOM=  -94.0860
 kinetic energy error for atom=    0.0000 (will be added to EATOM!!)
 
 
 POSCAR: Heusler tetragonGa
  positions in direct lattice
  velocities in cartesian coordinates
 exchange correlation table for  LEXCH =        8
   RHO(1)=    0.500       N(1)  =     2000
   RHO(2)=  100.500       N(2)  =     4000
 


--------------------------------------------------------------------------------------------------------


 ion  position               nearest neighbor table
   1  0.000  0.500  0.500-   5 2.56   6 2.56   7 2.56   8 2.56  13 2.62  14 2.62  15 2.62  16 2.62

   2  0.000  0.000  0.500-   5 2.56   6 2.56   7 2.56   8 2.56  13 2.62  14 2.62  15 2.62  16 2.62

   3  0.500  0.500  0.500-   5 2.56   6 2.56   7 2.56   8 2.56  13 2.62  14 2.62  15 2.62  16 2.62

   4  0.500  0.000  0.500-   5 2.56   6 2.56   7 2.56   8 2.56  13 2.62  14 2.62  15 2.62  16 2.62

   5  0.250  0.750  0.260-   1 2.56   2 2.56   3 2.56   4 2.56   9 2.63  10 2.63  11 2.63  12 2.63

   6  0.750  0.250  0.260-   1 2.56   2 2.56   3 2.56   4 2.56   9 2.63  10 2.63  11 2.63  12 2.63

   7  0.250  0.250  0.740-   1 2.56   2 2.56   3 2.56   4 2.56   9 2.63  10 2.63  11 2.63  12 2.63

   8  0.750  0.750  0.740-   1 2.56   2 2.56   3 2.56   4 2.56   9 2.63  10 2.63  11 2.63  12 2.63

   9  0.500  0.500  0.000-  13 2.57  14 2.57  15 2.57  16 2.57   5 2.63   6 2.63   7 2.63   8 2.63

  10  0.000  0.000  0.000-  13 2.57  14 2.57  15 2.57  16 2.57   5 2.63   6 2.63   7 2.63   8 2.63

  11  0.500  0.000  0.000-  13 2.57  14 2.57  15 2.57  16 2.57   5 2.63   6 2.63   7 2.63   8 2.63

  12  0.000  0.500  0.000-  13 2.57  14 2.57  15 2.57  16 2.57   5 2.63   6 2.63   7 2.63   8 2.63

  13  0.250  0.250  0.243-   9 2.57  10 2.57  11 2.57  12 2.57   1 2.62   2 2.62   3 2.62   4 2.62

  14  0.250  0.750  0.757-   9 2.57  10 2.57  11 2.57  12 2.57   1 2.62   2 2.62   3 2.62   4 2.62

  15  0.750  0.750  0.243-   9 2.57  10 2.57  11 2.57  12 2.57   1 2.62   2 2.62   3 2.62   4 2.62

  16  0.750  0.250  0.757-   9 2.57  10 2.57  11 2.57  12 2.57   1 2.62   2 2.62   3 2.62   4 2.62

 
  LATTYP: Found a simple tetragonal cell.
 ALAT       =     5.9456900085
 C/A-ratio  =     1.0193651777
  
  Lattice vectors:
  
 A1 = (   5.9456900085,   0.0000000000,   0.0000000000)
 A2 = (   0.0000000000,   5.9456900085,   0.0000000000)
 A3 = (   0.0000000000,   0.0000000000,   6.0608293521)


Analysis of symmetry for initial positions (statically):
=====================================================================
 Subroutine PRICEL returns following result:
 
  LATTYP: Found a simple tetragonal cell.
 ALAT       =     4.2042377239
 C/A-ratio  =     1.4416000593
  
  Lattice vectors:
  
 A1 = (   2.9728450043,  -2.9728450043,   0.0000000000)
 A2 = (   2.9728450043,   2.9728450043,   0.0000000000)
 A3 = (   0.0000000000,   0.0000000000,   6.0608293521)
 
   2 primitive cells build up your supercell.
 

 Routine SETGRP: Setting up the symmetry group for a 
 simple tetragonal supercell.


 Subroutine GETGRP returns: Found 16 space group operations
 (whereof  8 operations were pure point group operations)
 out of a pool of 16 trial point group operations.


The static configuration has the point symmetry D_2d.
 The point group associated with its full space group is D_4h.


Analysis of symmetry for dynamics (positions and initial velocities):
=====================================================================
 Subroutine PRICEL returns following result:
 
  LATTYP: Found a simple tetragonal cell.
 ALAT       =     4.2042377239
 C/A-ratio  =     1.4416000593
  
  Lattice vectors:
  
 A1 = (   2.9728450043,  -2.9728450043,   0.0000000000)
 A2 = (   2.9728450043,   2.9728450043,   0.0000000000)
 A3 = (   0.0000000000,   0.0000000000,   6.0608293521)
 
   2 primitive cells build up your supercell.
 

 Routine SETGRP: Setting up the symmetry group for a 
 simple tetragonal supercell.


 Subroutine GETGRP returns: Found 16 space group operations
 (whereof  8 operations were pure point group operations)
 out of a pool of 16 trial point group operations.


The dynamic configuration has the point symmetry D_2d.
 The point group associated with its full space group is D_4h.


Analysis of structural, dynamic, and magnetic symmetry:
=====================================================================
 Subroutine PRICEL returns following result:
 
  LATTYP: Found a simple tetragonal cell.
 ALAT       =     4.2042377239
 C/A-ratio  =     1.4416000593
  
  Lattice vectors:
  
 A1 = (   2.9728450043,  -2.9728450043,   0.0000000000)
 A2 = (   2.9728450043,   2.9728450043,   0.0000000000)
 A3 = (   0.0000000000,   0.0000000000,   6.0608293521)
 
   2 primitive cells build up your supercell.
 

 Routine SETGRP: Setting up the symmetry group for a 
 simple tetragonal supercell.


 Subroutine GETGRP returns: Found 16 space group operations
 (whereof  8 operations were pure point group operations)
 out of a pool of 16 trial point group operations.


The overall configuration has the point symmetry D_2d.
 The point group associated with its full space group is D_4h.


 Subroutine INISYM returns: Found 16 space group operations
 (whereof  8 operations are pure point group operations),
 and found     2 'primitive' translations


----------------------------------------------------------------------------------------

                                     Primitive cell                                     

  volume of cell :     107.1289

  direct lattice vectors                    reciprocal lattice vectors
     2.972845004 -2.972845004  0.000000000     0.168189058 -0.168189058  0.000000000
     2.972845004  2.972845004  0.000000000     0.168189058  0.168189058  0.000000000
     0.000000000  0.000000000  6.060829352     0.000000000  0.000000000  0.164993921

  length of vectors
     4.204237724  4.204237724  6.060829352     0.237855246  0.237855246  0.164993921

  position of ions in fractional coordinates (direct lattice)
     0.500000000  0.500000000  0.500000000
     0.000000000  0.000000000  0.500000000
     0.500000000  0.000000000  0.259869079
     1.000000000  0.500000000  0.740130921
     1.000000000  0.000000000  0.000000000
     0.500000000  0.500000000  0.000000000
     1.000000000  0.500000000  0.242644452
     0.500000000  0.000000000  0.757355548

  ion indices of the primitive-cell ions
   primitive index   ion index
                 1           1
                 2           2
                 3           5
                 4           7
                 5           9
                 6          12
                 7          13
                 8          14

----------------------------------------------------------------------------------------

 
 
 KPOINTS: Ni7CoMn5CrSn2                           

Automatic generation of k-mesh.
 Grid dimensions read from file:
 generate k-points for:   15   15   15

 Generating k-lattice:

  Cartesian coordinates                     Fractional coordinates (reciprocal lattice)
     0.011212604  0.000000000  0.000000000     0.066666667  0.000000000  0.000000000
     0.000000000  0.011212604  0.000000000     0.000000000  0.066666667  0.000000000
     0.000000000  0.000000000  0.010999595     0.000000000  0.000000000  0.066666667

  Length of vectors
     0.011212604  0.011212604  0.010999595

  Shift w.r.t. Gamma in fractional coordinates (k-lattice)
     0.000000000  0.000000000  0.000000000

 
 Subroutine IBZKPT returns following result:
 ===========================================
 
 Found    288 irreducible k-points:
 
 Following reciprocal coordinates:
            Coordinates               Weight
  0.000000  0.000000  0.000000      1.000000
  0.066667  0.000000  0.000000      4.000000
  0.133333  0.000000  0.000000      4.000000
  0.200000  0.000000  0.000000      4.000000
  0.266667  0.000000  0.000000      4.000000
  0.333333  0.000000  0.000000      4.000000
  0.400000  0.000000  0.000000      4.000000
  0.466667  0.000000  0.000000      4.000000
  0.066667  0.066667  0.000000      4.000000
  0.133333  0.066667  0.000000      8.000000
  0.200000  0.066667  0.000000      8.000000
  0.266667  0.066667  0.000000      8.000000
  0.333333  0.066667  0.000000      8.000000
  0.400000  0.066667  0.000000      8.000000
  0.466667  0.066667  0.000000      8.000000
  0.133333  0.133333  0.000000      4.000000
  0.200000  0.133333  0.000000      8.000000
  0.266667  0.133333  0.000000      8.000000
  0.333333  0.133333  0.000000      8.000000
  0.400000  0.133333  0.000000      8.000000
  0.466667  0.133333  0.000000      8.000000
  0.200000  0.200000  0.000000      4.000000
  0.266667  0.200000  0.000000      8.000000
  0.333333  0.200000  0.000000      8.000000
  0.400000  0.200000  0.000000      8.000000
  0.466667  0.200000  0.000000      8.000000
  0.266667  0.266667  0.000000      4.000000
  0.333333  0.266667  0.000000      8.000000
  0.400000  0.266667  0.000000      8.000000
  0.466667  0.266667  0.000000      8.000000
  0.333333  0.333333  0.000000      4.000000
  0.400000  0.333333  0.000000      8.000000
  0.466667  0.333333  0.000000      8.000000
  0.400000  0.400000  0.000000      4.000000
  0.466667  0.400000  0.000000      8.000000
  0.466667  0.466667  0.000000      4.000000
  0.000000  0.000000  0.066667      2.000000
  0.066667  0.000000  0.066667      8.000000
  0.133333  0.000000  0.066667      8.000000
  0.200000  0.000000  0.066667      8.000000
  0.266667  0.000000  0.066667      8.000000
  0.333333  0.000000  0.066667      8.000000
  0.400000  0.000000  0.066667      8.000000
  0.466667  0.000000  0.066667      8.000000
  0.066667  0.066667  0.066667      8.000000
  0.133333  0.066667  0.066667     16.000000
  0.200000  0.066667  0.066667     16.000000
  0.266667  0.066667  0.066667     16.000000
  0.333333  0.066667  0.066667     16.000000
  0.400000  0.066667  0.066667     16.000000
  0.466667  0.066667  0.066667     16.000000
  0.133333  0.133333  0.066667      8.000000
  0.200000  0.133333  0.066667     16.000000
  0.266667  0.133333  0.066667     16.000000
  0.333333  0.133333  0.066667     16.000000
  0.400000  0.133333  0.066667     16.000000
  0.466667  0.133333  0.066667     16.000000
  0.200000  0.200000  0.066667      8.000000
  0.266667  0.200000  0.066667     16.000000
  0.333333  0.200000  0.066667     16.000000
  0.400000  0.200000  0.066667     16.000000
  0.466667  0.200000  0.066667     16.000000
  0.266667  0.266667  0.066667      8.000000
  0.333333  0.266667  0.066667     16.000000
  0.400000  0.266667  0.066667     16.000000
  0.466667  0.266667  0.066667     16.000000
  0.333333  0.333333  0.066667      8.000000
  0.400000  0.333333  0.066667     16.000000
  0.466667  0.333333  0.066667     16.000000
  0.400000  0.400000  0.066667      8.000000
  0.466667  0.400000  0.066667     16.000000
  0.466667  0.466667  0.066667      8.000000
  0.000000  0.000000  0.133333      2.000000
  0.066667  0.000000  0.133333      8.000000
  0.133333  0.000000  0.133333      8.000000
  0.200000  0.000000  0.133333      8.000000
  0.266667  0.000000  0.133333      8.000000
  0.333333  0.000000  0.133333      8.000000
  0.400000  0.000000  0.133333      8.000000
  0.466667  0.000000  0.133333      8.000000
  0.066667  0.066667  0.133333      8.000000
  0.133333  0.066667  0.133333     16.000000
  0.200000  0.066667  0.133333     16.000000
  0.266667  0.066667  0.133333     16.000000
  0.333333  0.066667  0.133333     16.000000
  0.400000  0.066667  0.133333     16.000000
  0.466667  0.066667  0.133333     16.000000
  0.133333  0.133333  0.133333      8.000000
  0.200000  0.133333  0.133333     16.000000
  0.266667  0.133333  0.133333     16.000000
  0.333333  0.133333  0.133333     16.000000
  0.400000  0.133333  0.133333     16.000000
  0.466667  0.133333  0.133333     16.000000
  0.200000  0.200000  0.133333      8.000000
  0.266667  0.200000  0.133333     16.000000
  0.333333  0.200000  0.133333     16.000000
  0.400000  0.200000  0.133333     16.000000
  0.466667  0.200000  0.133333     16.000000
  0.266667  0.266667  0.133333      8.000000
  0.333333  0.266667  0.133333     16.000000
  0.400000  0.266667  0.133333     16.000000
  0.466667  0.266667  0.133333     16.000000
  0.333333  0.333333  0.133333      8.000000
  0.400000  0.333333  0.133333     16.000000
  0.466667  0.333333  0.133333     16.000000
  0.400000  0.400000  0.133333      8.000000
  0.466667  0.400000  0.133333     16.000000
  0.466667  0.466667  0.133333      8.000000
  0.000000  0.000000  0.200000      2.000000
  0.066667  0.000000  0.200000      8.000000
  0.133333  0.000000  0.200000      8.000000
  0.200000  0.000000  0.200000      8.000000
  0.266667  0.000000  0.200000      8.000000
  0.333333  0.000000  0.200000      8.000000
  0.400000  0.000000  0.200000      8.000000
  0.466667  0.000000  0.200000      8.000000
  0.066667  0.066667  0.200000      8.000000
  0.133333  0.066667  0.200000     16.000000
  0.200000  0.066667  0.200000     16.000000
  0.266667  0.066667  0.200000     16.000000
  0.333333  0.066667  0.200000     16.000000
  0.400000  0.066667  0.200000     16.000000
  0.466667  0.066667  0.200000     16.000000
  0.133333  0.133333  0.200000      8.000000
  0.200000  0.133333  0.200000     16.000000
  0.266667  0.133333  0.200000     16.000000
  0.333333  0.133333  0.200000     16.000000
  0.400000  0.133333  0.200000     16.000000
  0.466667  0.133333  0.200000     16.000000
  0.200000  0.200000  0.200000      8.000000
  0.266667  0.200000  0.200000     16.000000
  0.333333  0.200000  0.200000     16.000000
  0.400000  0.200000  0.200000     16.000000
  0.466667  0.200000  0.200000     16.000000
  0.266667  0.266667  0.200000      8.000000
  0.333333  0.266667  0.200000     16.000000
  0.400000  0.266667  0.200000     16.000000
  0.466667  0.266667  0.200000     16.000000
  0.333333  0.333333  0.200000      8.000000
  0.400000  0.333333  0.200000     16.000000
  0.466667  0.333333  0.200000     16.000000
  0.400000  0.400000  0.200000      8.000000
  0.466667  0.400000  0.200000     16.000000
  0.466667  0.466667  0.200000      8.000000
  0.000000  0.000000  0.266667      2.000000
  0.066667  0.000000  0.266667      8.000000
  0.133333  0.000000  0.266667      8.000000
  0.200000  0.000000  0.266667      8.000000
  0.266667  0.000000  0.266667      8.000000
  0.333333  0.000000  0.266667      8.000000
  0.400000  0.000000  0.266667      8.000000
  0.466667  0.000000  0.266667      8.000000
  0.066667  0.066667  0.266667      8.000000
  0.133333  0.066667  0.266667     16.000000
  0.200000  0.066667  0.266667     16.000000
  0.266667  0.066667  0.266667     16.000000
  0.333333  0.066667  0.266667     16.000000
  0.400000  0.066667  0.266667     16.000000
  0.466667  0.066667  0.266667     16.000000
  0.133333  0.133333  0.266667      8.000000
  0.200000  0.133333  0.266667     16.000000
  0.266667  0.133333  0.266667     16.000000
  0.333333  0.133333  0.266667     16.000000
  0.400000  0.133333  0.266667     16.000000
  0.466667  0.133333  0.266667     16.000000
  0.200000  0.200000  0.266667      8.000000
  0.266667  0.200000  0.266667     16.000000
  0.333333  0.200000  0.266667     16.000000
  0.400000  0.200000  0.266667     16.000000
  0.466667  0.200000  0.266667     16.000000
  0.266667  0.266667  0.266667      8.000000
  0.333333  0.266667  0.266667     16.000000
  0.400000  0.266667  0.266667     16.000000
  0.466667  0.266667  0.266667     16.000000
  0.333333  0.333333  0.266667      8.000000
  0.400000  0.333333  0.266667     16.000000
  0.466667  0.333333  0.266667     16.000000
  0.400000  0.400000  0.266667      8.000000
  0.466667  0.400000  0.266667     16.000000
  0.466667  0.466667  0.266667      8.000000
  0.000000  0.000000  0.333333      2.000000
  0.066667  0.000000  0.333333      8.000000
  0.133333  0.000000  0.333333      8.000000
  0.200000  0.000000  0.333333      8.000000
  0.266667  0.000000  0.333333      8.000000
  0.333333  0.000000  0.333333      8.000000
  0.400000  0.000000  0.333333      8.000000
  0.466667  0.000000  0.333333      8.000000
  0.066667  0.066667  0.333333      8.000000
  0.133333  0.066667  0.333333     16.000000
  0.200000  0.066667  0.333333     16.000000
  0.266667  0.066667  0.333333     16.000000
  0.333333  0.066667  0.333333     16.000000
  0.400000  0.066667  0.333333     16.000000
  0.466667  0.066667  0.333333     16.000000
  0.133333  0.133333  0.333333      8.000000
  0.200000  0.133333  0.333333     16.000000
  0.266667  0.133333  0.333333     16.000000
  0.333333  0.133333  0.333333     16.000000
  0.400000  0.133333  0.333333     16.000000
  0.466667  0.133333  0.333333     16.000000
  0.200000  0.200000  0.333333      8.000000
  0.266667  0.200000  0.333333     16.000000
  0.333333  0.200000  0.333333     16.000000
  0.400000  0.200000  0.333333     16.000000
  0.466667  0.200000  0.333333     16.000000
  0.266667  0.266667  0.333333      8.000000
  0.333333  0.266667  0.333333     16.000000
  0.400000  0.266667  0.333333     16.000000
  0.466667  0.266667  0.333333     16.000000
  0.333333  0.333333  0.333333      8.000000
  0.400000  0.333333  0.333333     16.000000
  0.466667  0.333333  0.333333     16.000000
  0.400000  0.400000  0.333333      8.000000
  0.466667  0.400000  0.333333     16.000000
  0.466667  0.466667  0.333333      8.000000
  0.000000  0.000000  0.400000      2.000000
  0.066667  0.000000  0.400000      8.000000
  0.133333  0.000000  0.400000      8.000000
  0.200000  0.000000  0.400000      8.000000
  0.266667  0.000000  0.400000      8.000000
  0.333333  0.000000  0.400000      8.000000
  0.400000  0.000000  0.400000      8.000000
  0.466667  0.000000  0.400000      8.000000
  0.066667  0.066667  0.400000      8.000000
  0.133333  0.066667  0.400000     16.000000
  0.200000  0.066667  0.400000     16.000000
  0.266667  0.066667  0.400000     16.000000
  0.333333  0.066667  0.400000     16.000000
  0.400000  0.066667  0.400000     16.000000
  0.466667  0.066667  0.400000     16.000000
  0.133333  0.133333  0.400000      8.000000
  0.200000  0.133333  0.400000     16.000000
  0.266667  0.133333  0.400000     16.000000
  0.333333  0.133333  0.400000     16.000000
  0.400000  0.133333  0.400000     16.000000
  0.466667  0.133333  0.400000     16.000000
  0.200000  0.200000  0.400000      8.000000
  0.266667  0.200000  0.400000     16.000000
  0.333333  0.200000  0.400000     16.000000
  0.400000  0.200000  0.400000     16.000000
  0.466667  0.200000  0.400000     16.000000
  0.266667  0.266667  0.400000      8.000000
  0.333333  0.266667  0.400000     16.000000
  0.400000  0.266667  0.400000     16.000000
  0.466667  0.266667  0.400000     16.000000
  0.333333  0.333333  0.400000      8.000000
  0.400000  0.333333  0.400000     16.000000
  0.466667  0.333333  0.400000     16.000000
  0.400000  0.400000  0.400000      8.000000
  0.466667  0.400000  0.400000     16.000000
  0.466667  0.466667  0.400000      8.000000
  0.000000  0.000000  0.466667      2.000000
  0.066667  0.000000  0.466667      8.000000
  0.133333  0.000000  0.466667      8.000000
  0.200000  0.000000  0.466667      8.000000
  0.266667  0.000000  0.466667      8.000000
  0.333333  0.000000  0.466667      8.000000
  0.400000  0.000000  0.466667      8.000000
  0.466667  0.000000  0.466667      8.000000
  0.066667  0.066667  0.466667      8.000000
  0.133333  0.066667  0.466667     16.000000
  0.200000  0.066667  0.466667     16.000000
  0.266667  0.066667  0.466667     16.000000
  0.333333  0.066667  0.466667     16.000000
  0.400000  0.066667  0.466667     16.000000
  0.466667  0.066667  0.466667     16.000000
  0.133333  0.133333  0.466667      8.000000
  0.200000  0.133333  0.466667     16.000000
  0.266667  0.133333  0.466667     16.000000
  0.333333  0.133333  0.466667     16.000000
  0.400000  0.133333  0.466667     16.000000
  0.466667  0.133333  0.466667     16.000000
  0.200000  0.200000  0.466667      8.000000
  0.266667  0.200000  0.466667     16.000000
  0.333333  0.200000  0.466667     16.000000
  0.400000  0.200000  0.466667     16.000000
  0.466667  0.200000  0.466667     16.000000
  0.266667  0.266667  0.466667      8.000000
  0.333333  0.266667  0.466667     16.000000
  0.400000  0.266667  0.466667     16.000000
  0.466667  0.266667  0.466667     16.000000
  0.333333  0.333333  0.466667      8.000000
  0.400000  0.333333  0.466667     16.000000
  0.466667  0.333333  0.466667     16.000000
  0.400000  0.400000  0.466667      8.000000
  0.466667  0.400000  0.466667     16.000000
  0.466667  0.466667  0.466667      8.000000
 
 Following cartesian coordinates:
            Coordinates               Weight
  0.000000  0.000000  0.000000      1.000000
  0.067836  0.000000  0.000000      4.000000
  0.135673  0.000000  0.000000      4.000000
  0.203509  0.000000  0.000000      4.000000
  0.271345  0.000000  0.000000      4.000000
  0.339181  0.000000  0.000000      4.000000
  0.407018  0.000000  0.000000      4.000000
  0.474854  0.000000  0.000000      4.000000
  0.067836  0.067836  0.000000      4.000000
  0.135673  0.067836  0.000000      8.000000
  0.203509  0.067836  0.000000      8.000000
  0.271345  0.067836  0.000000      8.000000
  0.339181  0.067836  0.000000      8.000000
  0.407018  0.067836  0.000000      8.000000
  0.474854  0.067836  0.000000      8.000000
  0.135673  0.135673  0.000000      4.000000
  0.203509  0.135673  0.000000      8.000000
  0.271345  0.135673  0.000000      8.000000
  0.339181  0.135673  0.000000      8.000000
  0.407018  0.135673  0.000000      8.000000
  0.474854  0.135673  0.000000      8.000000
  0.203509  0.203509  0.000000      4.000000
  0.271345  0.203509  0.000000      8.000000
  0.339181  0.203509  0.000000      8.000000
  0.407018  0.203509  0.000000      8.000000
  0.474854  0.203509  0.000000      8.000000
  0.271345  0.271345  0.000000      4.000000
  0.339181  0.271345  0.000000      8.000000
  0.407018  0.271345  0.000000      8.000000
  0.474854  0.271345  0.000000      8.000000
  0.339181  0.339181  0.000000      4.000000
  0.407018  0.339181  0.000000      8.000000
  0.474854  0.339181  0.000000      8.000000
  0.407018  0.407018  0.000000      4.000000
  0.474854  0.407018  0.000000      8.000000
  0.474854  0.474854  0.000000      4.000000
  0.000000  0.000000  0.066548      2.000000
  0.067836  0.000000  0.066548      8.000000
  0.135673  0.000000  0.066548      8.000000
  0.203509  0.000000  0.066548      8.000000
  0.271345  0.000000  0.066548      8.000000
  0.339181  0.000000  0.066548      8.000000
  0.407018  0.000000  0.066548      8.000000
  0.474854  0.000000  0.066548      8.000000
  0.067836  0.067836  0.066548      8.000000
  0.135673  0.067836  0.066548     16.000000
  0.203509  0.067836  0.066548     16.000000
  0.271345  0.067836  0.066548     16.000000
  0.339181  0.067836  0.066548     16.000000
  0.407018  0.067836  0.066548     16.000000
  0.474854  0.067836  0.066548     16.000000
  0.135673  0.135673  0.066548      8.000000
  0.203509  0.135673  0.066548     16.000000
  0.271345  0.135673  0.066548     16.000000
  0.339181  0.135673  0.066548     16.000000
  0.407018  0.135673  0.066548     16.000000
  0.474854  0.135673  0.066548     16.000000
  0.203509  0.203509  0.066548      8.000000
  0.271345  0.203509  0.066548     16.000000
  0.339181  0.203509  0.066548     16.000000
  0.407018  0.203509  0.066548     16.000000
  0.474854  0.203509  0.066548     16.000000
  0.271345  0.271345  0.066548      8.000000
  0.339181  0.271345  0.066548     16.000000
  0.407018  0.271345  0.066548     16.000000
  0.474854  0.271345  0.066548     16.000000
  0.339181  0.339181  0.066548      8.000000
  0.407018  0.339181  0.066548     16.000000
  0.474854  0.339181  0.066548     16.000000
  0.407018  0.407018  0.066548      8.000000
  0.474854  0.407018  0.066548     16.000000
  0.474854  0.474854  0.066548      8.000000
  0.000000  0.000000  0.133095      2.000000
  0.067836  0.000000  0.133095      8.000000
  0.135673  0.000000  0.133095      8.000000
  0.203509  0.000000  0.133095      8.000000
  0.271345  0.000000  0.133095      8.000000
  0.339181  0.000000  0.133095      8.000000
  0.407018  0.000000  0.133095      8.000000
  0.474854  0.000000  0.133095      8.000000
  0.067836  0.067836  0.133095      8.000000
  0.135673  0.067836  0.133095     16.000000
  0.203509  0.067836  0.133095     16.000000
  0.271345  0.067836  0.133095     16.000000
  0.339181  0.067836  0.133095     16.000000
  0.407018  0.067836  0.133095     16.000000
  0.474854  0.067836  0.133095     16.000000
  0.135673  0.135673  0.133095      8.000000
  0.203509  0.135673  0.133095     16.000000
  0.271345  0.135673  0.133095     16.000000
  0.339181  0.135673  0.133095     16.000000
  0.407018  0.135673  0.133095     16.000000
  0.474854  0.135673  0.133095     16.000000
  0.203509  0.203509  0.133095      8.000000
  0.271345  0.203509  0.133095     16.000000
  0.339181  0.203509  0.133095     16.000000
  0.407018  0.203509  0.133095     16.000000
  0.474854  0.203509  0.133095     16.000000
  0.271345  0.271345  0.133095      8.000000
  0.339181  0.271345  0.133095     16.000000
  0.407018  0.271345  0.133095     16.000000
  0.474854  0.271345  0.133095     16.000000
  0.339181  0.339181  0.133095      8.000000
  0.407018  0.339181  0.133095     16.000000
  0.474854  0.339181  0.133095     16.000000
  0.407018  0.407018  0.133095      8.000000
  0.474854  0.407018  0.133095     16.000000
  0.474854  0.474854  0.133095      8.000000
  0.000000  0.000000  0.199643      2.000000
  0.067836  0.000000  0.199643      8.000000
  0.135673  0.000000  0.199643      8.000000
  0.203509  0.000000  0.199643      8.000000
  0.271345  0.000000  0.199643      8.000000
  0.339181  0.000000  0.199643      8.000000
  0.407018  0.000000  0.199643      8.000000
  0.474854  0.000000  0.199643      8.000000
  0.067836  0.067836  0.199643      8.000000
  0.135673  0.067836  0.199643     16.000000
  0.203509  0.067836  0.199643     16.000000
  0.271345  0.067836  0.199643     16.000000
  0.339181  0.067836  0.199643     16.000000
  0.407018  0.067836  0.199643     16.000000
  0.474854  0.067836  0.199643     16.000000
  0.135673  0.135673  0.199643      8.000000
  0.203509  0.135673  0.199643     16.000000
  0.271345  0.135673  0.199643     16.000000
  0.339181  0.135673  0.199643     16.000000
  0.407018  0.135673  0.199643     16.000000
  0.474854  0.135673  0.199643     16.000000
  0.203509  0.203509  0.199643      8.000000
  0.271345  0.203509  0.199643     16.000000
  0.339181  0.203509  0.199643     16.000000
  0.407018  0.203509  0.199643     16.000000
  0.474854  0.203509  0.199643     16.000000
  0.271345  0.271345  0.199643      8.000000
  0.339181  0.271345  0.199643     16.000000
  0.407018  0.271345  0.199643     16.000000
  0.474854  0.271345  0.199643     16.000000
  0.339181  0.339181  0.199643      8.000000
  0.407018  0.339181  0.199643     16.000000
  0.474854  0.339181  0.199643     16.000000
  0.407018  0.407018  0.199643      8.000000
  0.474854  0.407018  0.199643     16.000000
  0.474854  0.474854  0.199643      8.000000
  0.000000  0.000000  0.266190      2.000000
  0.067836  0.000000  0.266190      8.000000
  0.135673  0.000000  0.266190      8.000000
  0.203509  0.000000  0.266190      8.000000
  0.271345  0.000000  0.266190      8.000000
  0.339181  0.000000  0.266190      8.000000
  0.407018  0.000000  0.266190      8.000000
  0.474854  0.000000  0.266190      8.000000
  0.067836  0.067836  0.266190      8.000000
  0.135673  0.067836  0.266190     16.000000
  0.203509  0.067836  0.266190     16.000000
  0.271345  0.067836  0.266190     16.000000
  0.339181  0.067836  0.266190     16.000000
  0.407018  0.067836  0.266190     16.000000
  0.474854  0.067836  0.266190     16.000000
  0.135673  0.135673  0.266190      8.000000
  0.203509  0.135673  0.266190     16.000000
  0.271345  0.135673  0.266190     16.000000
  0.339181  0.135673  0.266190     16.000000
  0.407018  0.135673  0.266190     16.000000
  0.474854  0.135673  0.266190     16.000000
  0.203509  0.203509  0.266190      8.000000
  0.271345  0.203509  0.266190     16.000000
  0.339181  0.203509  0.266190     16.000000
  0.407018  0.203509  0.266190     16.000000
  0.474854  0.203509  0.266190     16.000000
  0.271345  0.271345  0.266190      8.000000
  0.339181  0.271345  0.266190     16.000000
  0.407018  0.271345  0.266190     16.000000
  0.474854  0.271345  0.266190     16.000000
  0.339181  0.339181  0.266190      8.000000
  0.407018  0.339181  0.266190     16.000000
  0.474854  0.339181  0.266190     16.000000
  0.407018  0.407018  0.266190      8.000000
  0.474854  0.407018  0.266190     16.000000
  0.474854  0.474854  0.266190      8.000000
  0.000000  0.000000  0.332738      2.000000
  0.067836  0.000000  0.332738      8.000000
  0.135673  0.000000  0.332738      8.000000
  0.203509  0.000000  0.332738      8.000000
  0.271345  0.000000  0.332738      8.000000
  0.339181  0.000000  0.332738      8.000000
  0.407018  0.000000  0.332738      8.000000
  0.474854  0.000000  0.332738      8.000000
  0.067836  0.067836  0.332738      8.000000
  0.135673  0.067836  0.332738     16.000000
  0.203509  0.067836  0.332738     16.000000
  0.271345  0.067836  0.332738     16.000000
  0.339181  0.067836  0.332738     16.000000
  0.407018  0.067836  0.332738     16.000000
  0.474854  0.067836  0.332738     16.000000
  0.135673  0.135673  0.332738      8.000000
  0.203509  0.135673  0.332738     16.000000
  0.271345  0.135673  0.332738     16.000000
  0.339181  0.135673  0.332738     16.000000
  0.407018  0.135673  0.332738     16.000000
  0.474854  0.135673  0.332738     16.000000
  0.203509  0.203509  0.332738      8.000000
  0.271345  0.203509  0.332738     16.000000
  0.339181  0.203509  0.332738     16.000000
  0.407018  0.203509  0.332738     16.000000
  0.474854  0.203509  0.332738     16.000000
  0.271345  0.271345  0.332738      8.000000
  0.339181  0.271345  0.332738     16.000000
  0.407018  0.271345  0.332738     16.000000
  0.474854  0.271345  0.332738     16.000000
  0.339181  0.339181  0.332738      8.000000
  0.407018  0.339181  0.332738     16.000000
  0.474854  0.339181  0.332738     16.000000
  0.407018  0.407018  0.332738      8.000000
  0.474854  0.407018  0.332738     16.000000
  0.474854  0.474854  0.332738      8.000000
  0.000000  0.000000  0.399285      2.000000
  0.067836  0.000000  0.399285      8.000000
  0.135673  0.000000  0.399285      8.000000
  0.203509  0.000000  0.399285      8.000000
  0.271345  0.000000  0.399285      8.000000
  0.339181  0.000000  0.399285      8.000000
  0.407018  0.000000  0.399285      8.000000
  0.474854  0.000000  0.399285      8.000000
  0.067836  0.067836  0.399285      8.000000
  0.135673  0.067836  0.399285     16.000000
  0.203509  0.067836  0.399285     16.000000
  0.271345  0.067836  0.399285     16.000000
  0.339181  0.067836  0.399285     16.000000
  0.407018  0.067836  0.399285     16.000000
  0.474854  0.067836  0.399285     16.000000
  0.135673  0.135673  0.399285      8.000000
  0.203509  0.135673  0.399285     16.000000
  0.271345  0.135673  0.399285     16.000000
  0.339181  0.135673  0.399285     16.000000
  0.407018  0.135673  0.399285     16.000000
  0.474854  0.135673  0.399285     16.000000
  0.203509  0.203509  0.399285      8.000000
  0.271345  0.203509  0.399285     16.000000
  0.339181  0.203509  0.399285     16.000000
  0.407018  0.203509  0.399285     16.000000
  0.474854  0.203509  0.399285     16.000000
  0.271345  0.271345  0.399285      8.000000
  0.339181  0.271345  0.399285     16.000000
  0.407018  0.271345  0.399285     16.000000
  0.474854  0.271345  0.399285     16.000000
  0.339181  0.339181  0.399285      8.000000
  0.407018  0.339181  0.399285     16.000000
  0.474854  0.339181  0.399285     16.000000
  0.407018  0.407018  0.399285      8.000000
  0.474854  0.407018  0.399285     16.000000
  0.474854  0.474854  0.399285      8.000000
  0.000000  0.000000  0.465833      2.000000
  0.067836  0.000000  0.465833      8.000000
  0.135673  0.000000  0.465833      8.000000
  0.203509  0.000000  0.465833      8.000000
  0.271345  0.000000  0.465833      8.000000
  0.339181  0.000000  0.465833      8.000000
  0.407018  0.000000  0.465833      8.000000
  0.474854  0.000000  0.465833      8.000000
  0.067836  0.067836  0.465833      8.000000
  0.135673  0.067836  0.465833     16.000000
  0.203509  0.067836  0.465833     16.000000
  0.271345  0.067836  0.465833     16.000000
  0.339181  0.067836  0.465833     16.000000
  0.407018  0.067836  0.465833     16.000000
  0.474854  0.067836  0.465833     16.000000
  0.135673  0.135673  0.465833      8.000000
  0.203509  0.135673  0.465833     16.000000
  0.271345  0.135673  0.465833     16.000000
  0.339181  0.135673  0.465833     16.000000
  0.407018  0.135673  0.465833     16.000000
  0.474854  0.135673  0.465833     16.000000
  0.203509  0.203509  0.465833      8.000000
  0.271345  0.203509  0.465833     16.000000
  0.339181  0.203509  0.465833     16.000000
  0.407018  0.203509  0.465833     16.000000
  0.474854  0.203509  0.465833     16.000000
  0.271345  0.271345  0.465833      8.000000
  0.339181  0.271345  0.465833     16.000000
  0.407018  0.271345  0.465833     16.000000
  0.474854  0.271345  0.465833     16.000000
  0.339181  0.339181  0.465833      8.000000
  0.407018  0.339181  0.465833     16.000000
  0.474854  0.339181  0.465833     16.000000
  0.407018  0.407018  0.465833      8.000000
  0.474854  0.407018  0.465833     16.000000
  0.474854  0.474854  0.465833      8.000000
 


--------------------------------------------------------------------------------------------------------




 Dimension of arrays:
   k-points           NKPTS =    288   k-points in BZ     NKDIM =    288   number of bands    NBANDS=    126
   number of dos      NEDOS =   1500   number of ions     NIONS =     16
   non local maximal  LDIM  =      6   non local SUM 2l+1 LMDIM =     18
   total plane-waves  NPLWV = 110592
   max r-space proj   IRMAX =   9930   max aug-charges    IRDMAX= 397632
   dimension x,y,z NGX =    48 NGY =   48 NGZ =   48
   dimension x,y,z NGXF=    96 NGYF=   96 NGZF=   96
   support grid    NGXF=   192 NGYF=  192 NGZF=  192
   ions per type =               8   4   4
   NGX,Y,Z   is equivalent  to a cutoff of  13.42, 13.42, 13.17 a.u.
   NGXF,Y,Z  is equivalent  to a cutoff of  26.84, 26.84, 26.33 a.u.

 SYSTEM =  NiCoMnGa                                
 POSCAR =  Heusler tetragonGa                      

 Startparameter for this run:
   NWRITE =      2    write-flag & timer
   PREC   = accura    normal or accurate (medium, high low for compatibility)
   ISTART =      0    job   : 0-new  1-cont  2-samecut
   ICHARG =      2    charge: 1-file 2-atom 10-const
   ISPIN  =      2    spin polarized calculation?
   LNONCOLLINEAR =      F non collinear calculations
   LSORBIT =      F    spin-orbit coupling
   INIWAV =      1    electr: 0-lowe 1-rand  2-diag
   LASPH  =      F    aspherical Exc in radial PAW
   METAGGA=      F    non-selfconsistent MetaGGA calc.

 Electronic Relaxation 1
   ENCUT  =  500.0 eV  36.75 Ry    6.06 a.u.  10.84 10.84 11.05*2*pi/ulx,y,z
   ENINI  =  500.0     initial cutoff
   ENAUG  =  578.3 eV  augmentation charge cutoff
   NELM   =    160;   NELMIN=  2; NELMDL= -6     # of ELM steps 
   EDIFF  = 0.1E-05   stopping-criterion for ELM
   LREAL  =      T    real-space projection
   NLSPLINE    = F    spline interpolate recip. space projectors
   LCOMPAT=      F    compatible to vasp.4.4
   GGA_COMPAT  = T    GGA compatible to vasp.4.4-vasp.4.6
   LMAXPAW     = -100 max onsite density
   LMAXMIX     =    6 max onsite mixed and CHGCAR
   VOSKOWN=      0    Vosko Wilk Nusair interpolation
   ROPT   =   -0.00025  -0.00025  -0.00025
 Ionic relaxation
   EDIFFG = 0.1E-04   stopping-criterion for IOM
   NSW    =      0    number of steps for IOM
   NBLOCK =      1;   KBLOCK =      1    inner block; outer block 
   IBRION =     -1    ionic relax: 0-MD 1-quasi-New 2-CG
   NFREE  =      1    steps in history (QN), initial steepest desc. (CG)
   ISIF   =      3    stress and relaxation
   IWAVPR =     10    prediction:  0-non 1-charg 2-wave 3-comb
   ISYM   =      2    0-nonsym 1-usesym 2-fastsym
   LCORR  =      T    Harris-Foulkes like correction to forces

   POTIM  = 0.0070    time-step for ionic-motion
   TEIN   =    0.0    initial temperature
   TEBEG  =    0.0;   TEEND  =   0.0 temperature during run
   SMASS  =  -3.00    Nose mass-parameter (am)
   estimated Nose-frequenzy (Omega)   =  0.10E-29 period in steps = 0.90E+48 mass=  -0.808E-27a.u.
   SCALEE = 1.0000    scale energy and forces
   NPACO  =    256;   APACO  = 16.0  distance and # of slots for P.C.
   PSTRESS=    0.0 pullay stress

  Mass of Ions in am
   POMASS =  55.85 58.93118.71
  Ionic Valenz
   ZVAL   =  14.00 15.00  4.00
  Atomic Wigner-Seitz radii
   RWIGS  =   1.16  1.16  1.16
  virtual crystal weights 
   VCA    =   1.00  1.00  1.00
   NELECT =     188.0000    total number of electrons
   NUPDOWN=      -1.0000    fix difference up-down

 DOS related values:
   EMIN   =  10.00;   EMAX   =-10.00  energy-range for DOS
   EFERMI =   0.00
   ISMEAR =     1;   SIGMA  =   0.10  broadening in eV -4-tet -1-fermi 0-gaus

 Electronic relaxation 2 (details)
   IALGO  =     38    algorithm
   LDIAG  =      T    sub-space diagonalisation (order eigenvalues)
   LSUBROT=      F    optimize rotation matrix (better conditioning)
   TURBO    =      0    0=normal 1=particle mesh
   IRESTART =      0    0=no restart 2=restart with 2 vectors
   NREBOOT  =      0    no. of reboots
   NMIN     =      0    reboot dimension
   EREF     =   0.00    reference energy to select bands
   IMIX   =      4    mixing-type and parameters
     AMIX     =   0.18;   BMIX     =  0.00
     AMIX_MAG =   0.26;   BMIX_MAG =  0.01
     AMIN     =   0.10
     WC   =   100.;   INIMIX=   1;  MIXPRE=   1;  MAXMIX= -45

 Intra band minimization:
   WEIMIN = 0.0000     energy-eigenvalue tresh-hold
   EBREAK =  0.20E-08  absolut break condition
   DEPER  =   0.30     relativ break condition  

   TIME   =   0.40     timestep for ELM

  volume/ion in A,a.u.               =      13.39        90.37
  Fermi-wavevector in a.u.,A,eV,Ry     =   1.567287  2.961743 33.421204  2.456389
  Thomas-Fermi vector in A             =   2.669489
 
 Write flags
   LWAVE        =      F    write WAVECAR
   LDOWNSAMPLE  =      F    k-point downsampling of WAVECAR
   LCHARG       =      T    write CHGCAR
   LVTOT        =      F    write LOCPOT, total local potential
   LVHAR        =      F    write LOCPOT, Hartree potential only
   LELF         =      F    write electronic localiz. function (ELF)
   LORBIT       =     10    0 simple, 1 ext, 2 COOP (PROOUT), +10 PAW based schemes


 Dipole corrections
   LMONO  =      F    monopole corrections only (constant potential shift)
   LDIPOL =      F    correct potential (dipole corrections)
   IDIPOL =      0    1-x, 2-y, 3-z, 4-all directions 
   EPSILON=  1.0000000 bulk dielectric constant

 Exchange correlation treatment:
   GGA     =    --    GGA type
   LEXCH   =     8    internal setting for exchange type
   VOSKOWN=      0    Vosko Wilk Nusair interpolation
   LHFCALC =     F    Hartree Fock is set to
   LHFONE  =     F    Hartree Fock one center treatment
   AEXX    =    0.0000 exact exchange contribution

 Linear response parameters
   LEPSILON=     F    determine dielectric tensor
   LRPA    =     F    only Hartree local field effects (RPA)
   LNABLA  =     F    use nabla operator in PAW spheres
   LVEL    =     F    velocity operator in full k-point grid
   LINTERFAST=   F  fast interpolation
   KINTER  =     0    interpolate to denser k-point grid
   CSHIFT  =0.1000    complex shift for real part using Kramers Kronig
   OMEGAMAX=  -1.0    maximum frequency
   DEG_THRESHOLD= 0.2000000E-02 threshold for treating states as degnerate
   RTIME   =   -0.100 relaxation time in fs
  (WPLASMAI=    0.000 imaginary part of plasma frequency in eV, 0.658/RTIME)
   DFIELD  = 0.0000000 0.0000000 0.0000000 field for delta impulse in time
 
 Orbital magnetization related:
   ORBITALMAG=     F  switch on orbital magnetization
   LCHIMAG   =     F  perturbation theory with respect to B field
   DQ        =  0.001000  dq finite difference perturbation B field
   LLRAUG    =     F  two centre corrections for induced B field



--------------------------------------------------------------------------------------------------------


 Static calculation
 charge density and potential will be updated during run
 spin polarized calculation
 Variant of blocked Davidson
 Davidson routine will perform the subspace rotation
 perform sub-space diagonalisation
    after iterative eigenvector-optimisation
 modified Broyden-mixing scheme, WC =      100.0
 initial mixing is a Kerker type mixing with AMIX =  0.1800 and BMIX =      0.0025
 Hartree-type preconditioning will be used
 using additional bands           32
 real space projection scheme for non local part
 use partial core corrections
 calculate Harris-corrections to forces 
   (improved forces if not selfconsistent)
 use gradient corrections 
 use of overlap-Matrix (Vanderbilt PP)
 Methfessel and Paxton  Order N= 1 SIGMA  =   0.10


--------------------------------------------------------------------------------------------------------


  energy-cutoff  :      500.00
  volume of cell :      214.26
      direct lattice vectors                 reciprocal lattice vectors
     5.945690009  0.000000000  0.000000000     0.168189058  0.000000000  0.000000000
     0.000000000  5.945690009  0.000000000     0.000000000  0.168189058  0.000000000
     0.000000000  0.000000000  6.060829352     0.000000000  0.000000000  0.164993921

  length of vectors
     5.945690009  5.945690009  6.060829352     0.168189058  0.168189058  0.164993921


 
 k-points in units of 2pi/SCALE and weight: Ni7CoMn5CrSn2                           
   0.00000000  0.00000000  0.00000000       0.000
   0.06783625  0.00000000  0.00000000       0.001
   0.13567251  0.00000000  0.00000000       0.001
   0.20350876  0.00000000  0.00000000       0.001
   0.27134501  0.00000000  0.00000000       0.001
   0.33918127  0.00000000  0.00000000       0.001
   0.40701752  0.00000000  0.00000000       0.001
   0.47485377  0.00000000  0.00000000       0.001
   0.06783625  0.06783625  0.00000000       0.001
   0.13567251  0.06783625  0.00000000       0.002
   0.20350876  0.06783625  0.00000000       0.002
   0.27134501  0.06783625  0.00000000       0.002
   0.33918127  0.06783625  0.00000000       0.002
   0.40701752  0.06783625  0.00000000       0.002
   0.47485377  0.06783625  0.00000000       0.002
   0.13567251  0.13567251  0.00000000       0.001
   0.20350876  0.13567251  0.00000000       0.002
   0.27134501  0.13567251  0.00000000       0.002
   0.33918127  0.13567251  0.00000000       0.002
   0.40701752  0.13567251  0.00000000       0.002
   0.47485377  0.13567251  0.00000000       0.002
   0.20350876  0.20350876  0.00000000       0.001
   0.27134501  0.20350876  0.00000000       0.002
   0.33918127  0.20350876  0.00000000       0.002
   0.40701752  0.20350876  0.00000000       0.002
   0.47485377  0.20350876  0.00000000       0.002
   0.27134501  0.27134501  0.00000000       0.001
   0.33918127  0.27134501  0.00000000       0.002
   0.40701752  0.27134501  0.00000000       0.002
   0.47485377  0.27134501  0.00000000       0.002
   0.33918127  0.33918127  0.00000000       0.001
   0.40701752  0.33918127  0.00000000       0.002
   0.47485377  0.33918127  0.00000000       0.002
   0.40701752  0.40701752  0.00000000       0.001
   0.47485377  0.40701752  0.00000000       0.002
   0.47485377  0.47485377  0.00000000       0.001
   0.00000000  0.00000000  0.06654755       0.001
   0.06783625  0.00000000  0.06654755       0.002
   0.13567251  0.00000000  0.06654755       0.002
   0.20350876  0.00000000  0.06654755       0.002
   0.27134501  0.00000000  0.06654755       0.002
   0.33918127  0.00000000  0.06654755       0.002
   0.40701752  0.00000000  0.06654755       0.002
   0.47485377  0.00000000  0.06654755       0.002
   0.06783625  0.06783625  0.06654755       0.002
   0.13567251  0.06783625  0.06654755       0.005
   0.20350876  0.06783625  0.06654755       0.005
   0.27134501  0.06783625  0.06654755       0.005
   0.33918127  0.06783625  0.06654755       0.005
   0.40701752  0.06783625  0.06654755       0.005
   0.47485377  0.06783625  0.06654755       0.005
   0.13567251  0.13567251  0.06654755       0.002
   0.20350876  0.13567251  0.06654755       0.005
   0.27134501  0.13567251  0.06654755       0.005
   0.33918127  0.13567251  0.06654755       0.005
   0.40701752  0.13567251  0.06654755       0.005
   0.47485377  0.13567251  0.06654755       0.005
   0.20350876  0.20350876  0.06654755       0.002
   0.27134501  0.20350876  0.06654755       0.005
   0.33918127  0.20350876  0.06654755       0.005
   0.40701752  0.20350876  0.06654755       0.005
   0.47485377  0.20350876  0.06654755       0.005
   0.27134501  0.27134501  0.06654755       0.002
   0.33918127  0.27134501  0.06654755       0.005
   0.40701752  0.27134501  0.06654755       0.005
   0.47485377  0.27134501  0.06654755       0.005
   0.33918127  0.33918127  0.06654755       0.002
   0.40701752  0.33918127  0.06654755       0.005
   0.47485377  0.33918127  0.06654755       0.005
   0.40701752  0.40701752  0.06654755       0.002
   0.47485377  0.40701752  0.06654755       0.005
   0.47485377  0.47485377  0.06654755       0.002
   0.00000000  0.00000000  0.13309510       0.001
   0.06783625  0.00000000  0.13309510       0.002
   0.13567251  0.00000000  0.13309510       0.002
   0.20350876  0.00000000  0.13309510       0.002
   0.27134501  0.00000000  0.13309510       0.002
   0.33918127  0.00000000  0.13309510       0.002
   0.40701752  0.00000000  0.13309510       0.002
   0.47485377  0.00000000  0.13309510       0.002
   0.06783625  0.06783625  0.13309510       0.002
   0.13567251  0.06783625  0.13309510       0.005
   0.20350876  0.06783625  0.13309510       0.005
   0.27134501  0.06783625  0.13309510       0.005
   0.33918127  0.06783625  0.13309510       0.005
   0.40701752  0.06783625  0.13309510       0.005
   0.47485377  0.06783625  0.13309510       0.005
   0.13567251  0.13567251  0.13309510       0.002
   0.20350876  0.13567251  0.13309510       0.005
   0.27134501  0.13567251  0.13309510       0.005
   0.33918127  0.13567251  0.13309510       0.005
   0.40701752  0.13567251  0.13309510       0.005
   0.47485377  0.13567251  0.13309510       0.005
   0.20350876  0.20350876  0.13309510       0.002
   0.27134501  0.20350876  0.13309510       0.005
   0.33918127  0.20350876  0.13309510       0.005
   0.40701752  0.20350876  0.13309510       0.005
   0.47485377  0.20350876  0.13309510       0.005
   0.27134501  0.27134501  0.13309510       0.002
   0.33918127  0.27134501  0.13309510       0.005
   0.40701752  0.27134501  0.13309510       0.005
   0.47485377  0.27134501  0.13309510       0.005
   0.33918127  0.33918127  0.13309510       0.002
   0.40701752  0.33918127  0.13309510       0.005
   0.47485377  0.33918127  0.13309510       0.005
   0.40701752  0.40701752  0.13309510       0.002
   0.47485377  0.40701752  0.13309510       0.005
   0.47485377  0.47485377  0.13309510       0.002
   0.00000000  0.00000000  0.19964264       0.001
   0.06783625  0.00000000  0.19964264       0.002
   0.13567251  0.00000000  0.19964264       0.002
   0.20350876  0.00000000  0.19964264       0.002
   0.27134501  0.00000000  0.19964264       0.002
   0.33918127  0.00000000  0.19964264       0.002
   0.40701752  0.00000000  0.19964264       0.002
   0.47485377  0.00000000  0.19964264       0.002
   0.06783625  0.06783625  0.19964264       0.002
   0.13567251  0.06783625  0.19964264       0.005
   0.20350876  0.06783625  0.19964264       0.005
   0.27134501  0.06783625  0.19964264       0.005
   0.33918127  0.06783625  0.19964264       0.005
   0.40701752  0.06783625  0.19964264       0.005
   0.47485377  0.06783625  0.19964264       0.005
   0.13567251  0.13567251  0.19964264       0.002
   0.20350876  0.13567251  0.19964264       0.005
   0.27134501  0.13567251  0.19964264       0.005
   0.33918127  0.13567251  0.19964264       0.005
   0.40701752  0.13567251  0.19964264       0.005
   0.47485377  0.13567251  0.19964264       0.005
   0.20350876  0.20350876  0.19964264       0.002
   0.27134501  0.20350876  0.19964264       0.005
   0.33918127  0.20350876  0.19964264       0.005
   0.40701752  0.20350876  0.19964264       0.005
   0.47485377  0.20350876  0.19964264       0.005
   0.27134501  0.27134501  0.19964264       0.002
   0.33918127  0.27134501  0.19964264       0.005
   0.40701752  0.27134501  0.19964264       0.005
   0.47485377  0.27134501  0.19964264       0.005
   0.33918127  0.33918127  0.19964264       0.002
   0.40701752  0.33918127  0.19964264       0.005
   0.47485377  0.33918127  0.19964264       0.005
   0.40701752  0.40701752  0.19964264       0.002
   0.47485377  0.40701752  0.19964264       0.005
   0.47485377  0.47485377  0.19964264       0.002
   0.00000000  0.00000000  0.26619019       0.001
   0.06783625  0.00000000  0.26619019       0.002
   0.13567251  0.00000000  0.26619019       0.002
   0.20350876  0.00000000  0.26619019       0.002
   0.27134501  0.00000000  0.26619019       0.002
   0.33918127  0.00000000  0.26619019       0.002
   0.40701752  0.00000000  0.26619019       0.002
   0.47485377  0.00000000  0.26619019       0.002
   0.06783625  0.06783625  0.26619019       0.002
   0.13567251  0.06783625  0.26619019       0.005
   0.20350876  0.06783625  0.26619019       0.005
   0.27134501  0.06783625  0.26619019       0.005
   0.33918127  0.06783625  0.26619019       0.005
   0.40701752  0.06783625  0.26619019       0.005
   0.47485377  0.06783625  0.26619019       0.005
   0.13567251  0.13567251  0.26619019       0.002
   0.20350876  0.13567251  0.26619019       0.005
   0.27134501  0.13567251  0.26619019       0.005
   0.33918127  0.13567251  0.26619019       0.005
   0.40701752  0.13567251  0.26619019       0.005
   0.47485377  0.13567251  0.26619019       0.005
   0.20350876  0.20350876  0.26619019       0.002
   0.27134501  0.20350876  0.26619019       0.005
   0.33918127  0.20350876  0.26619019       0.005
   0.40701752  0.20350876  0.26619019       0.005
   0.47485377  0.20350876  0.26619019       0.005
   0.27134501  0.27134501  0.26619019       0.002
   0.33918127  0.27134501  0.26619019       0.005
   0.40701752  0.27134501  0.26619019       0.005
   0.47485377  0.27134501  0.26619019       0.005
   0.33918127  0.33918127  0.26619019       0.002
   0.40701752  0.33918127  0.26619019       0.005
   0.47485377  0.33918127  0.26619019       0.005
   0.40701752  0.40701752  0.26619019       0.002
   0.47485377  0.40701752  0.26619019       0.005
   0.47485377  0.47485377  0.26619019       0.002
   0.00000000  0.00000000  0.33273774       0.001
   0.06783625  0.00000000  0.33273774       0.002
   0.13567251  0.00000000  0.33273774       0.002
   0.20350876  0.00000000  0.33273774       0.002
   0.27134501  0.00000000  0.33273774       0.002
   0.33918127  0.00000000  0.33273774       0.002
   0.40701752  0.00000000  0.33273774       0.002
   0.47485377  0.00000000  0.33273774       0.002
   0.06783625  0.06783625  0.33273774       0.002
   0.13567251  0.06783625  0.33273774       0.005
   0.20350876  0.06783625  0.33273774       0.005
   0.27134501  0.06783625  0.33273774       0.005
   0.33918127  0.06783625  0.33273774       0.005
   0.40701752  0.06783625  0.33273774       0.005
   0.47485377  0.06783625  0.33273774       0.005
   0.13567251  0.13567251  0.33273774       0.002
   0.20350876  0.13567251  0.33273774       0.005
   0.27134501  0.13567251  0.33273774       0.005
   0.33918127  0.13567251  0.33273774       0.005
   0.40701752  0.13567251  0.33273774       0.005
   0.47485377  0.13567251  0.33273774       0.005
   0.20350876  0.20350876  0.33273774       0.002
   0.27134501  0.20350876  0.33273774       0.005
   0.33918127  0.20350876  0.33273774       0.005
   0.40701752  0.20350876  0.33273774       0.005
   0.47485377  0.20350876  0.33273774       0.005
   0.27134501  0.27134501  0.33273774       0.002
   0.33918127  0.27134501  0.33273774       0.005
   0.40701752  0.27134501  0.33273774       0.005
   0.47485377  0.27134501  0.33273774       0.005
   0.33918127  0.33918127  0.33273774       0.002
   0.40701752  0.33918127  0.33273774       0.005
   0.47485377  0.33918127  0.33273774       0.005
   0.40701752  0.40701752  0.33273774       0.002
   0.47485377  0.40701752  0.33273774       0.005
   0.47485377  0.47485377  0.33273774       0.002
   0.00000000  0.00000000  0.39928529       0.001
   0.06783625  0.00000000  0.39928529       0.002
   0.13567251  0.00000000  0.39928529       0.002
   0.20350876  0.00000000  0.39928529       0.002
   0.27134501  0.00000000  0.39928529       0.002
   0.33918127  0.00000000  0.39928529       0.002
   0.40701752  0.00000000  0.39928529       0.002
   0.47485377  0.00000000  0.39928529       0.002
   0.06783625  0.06783625  0.39928529       0.002
   0.13567251  0.06783625  0.39928529       0.005
   0.20350876  0.06783625  0.39928529       0.005
   0.27134501  0.06783625  0.39928529       0.005
   0.33918127  0.06783625  0.39928529       0.005
   0.40701752  0.06783625  0.39928529       0.005
   0.47485377  0.06783625  0.39928529       0.005
   0.13567251  0.13567251  0.39928529       0.002
   0.20350876  0.13567251  0.39928529       0.005
   0.27134501  0.13567251  0.39928529       0.005
   0.33918127  0.13567251  0.39928529       0.005
   0.40701752  0.13567251  0.39928529       0.005
   0.47485377  0.13567251  0.39928529       0.005
   0.20350876  0.20350876  0.39928529       0.002
   0.27134501  0.20350876  0.39928529       0.005
   0.33918127  0.20350876  0.39928529       0.005
   0.40701752  0.20350876  0.39928529       0.005
   0.47485377  0.20350876  0.39928529       0.005
   0.27134501  0.27134501  0.39928529       0.002
   0.33918127  0.27134501  0.39928529       0.005
   0.40701752  0.27134501  0.39928529       0.005
   0.47485377  0.27134501  0.39928529       0.005
   0.33918127  0.33918127  0.39928529       0.002
   0.40701752  0.33918127  0.39928529       0.005
   0.47485377  0.33918127  0.39928529       0.005
   0.40701752  0.40701752  0.39928529       0.002
   0.47485377  0.40701752  0.39928529       0.005
   0.47485377  0.47485377  0.39928529       0.002
   0.00000000  0.00000000  0.46583284       0.001
   0.06783625  0.00000000  0.46583284       0.002
   0.13567251  0.00000000  0.46583284       0.002
   0.20350876  0.00000000  0.46583284       0.002
   0.27134501  0.00000000  0.46583284       0.002
   0.33918127  0.00000000  0.46583284       0.002
   0.40701752  0.00000000  0.46583284       0.002
   0.47485377  0.00000000  0.46583284       0.002
   0.06783625  0.06783625  0.46583284       0.002
   0.13567251  0.06783625  0.46583284       0.005
   0.20350876  0.06783625  0.46583284       0.005
   0.27134501  0.06783625  0.46583284       0.005
   0.33918127  0.06783625  0.46583284       0.005
   0.40701752  0.06783625  0.46583284       0.005
   0.47485377  0.06783625  0.46583284       0.005
   0.13567251  0.13567251  0.46583284       0.002
   0.20350876  0.13567251  0.46583284       0.005
   0.27134501  0.13567251  0.46583284       0.005
   0.33918127  0.13567251  0.46583284       0.005
   0.40701752  0.13567251  0.46583284       0.005
   0.47485377  0.13567251  0.46583284       0.005
   0.20350876  0.20350876  0.46583284       0.002
   0.27134501  0.20350876  0.46583284       0.005
   0.33918127  0.20350876  0.46583284       0.005
   0.40701752  0.20350876  0.46583284       0.005
   0.47485377  0.20350876  0.46583284       0.005
   0.27134501  0.27134501  0.46583284       0.002
   0.33918127  0.27134501  0.46583284       0.005
   0.40701752  0.27134501  0.46583284       0.005
   0.47485377  0.27134501  0.46583284       0.005
   0.33918127  0.33918127  0.46583284       0.002
   0.40701752  0.33918127  0.46583284       0.005
   0.47485377  0.33918127  0.46583284       0.005
   0.40701752  0.40701752  0.46583284       0.002
   0.47485377  0.40701752  0.46583284       0.005
   0.47485377  0.47485377  0.46583284       0.002
 
 k-points in reciprocal lattice and weights: Ni7CoMn5CrSn2                           
   0.00000000  0.00000000  0.00000000       0.000
   0.06666667  0.00000000  0.00000000       0.001
   0.13333333  0.00000000  0.00000000       0.001
   0.20000000  0.00000000  0.00000000       0.001
   0.26666667  0.00000000  0.00000000       0.001
   0.33333333  0.00000000  0.00000000       0.001
   0.40000000  0.00000000  0.00000000       0.001
   0.46666667  0.00000000  0.00000000       0.001
   0.06666667  0.06666667  0.00000000       0.001
   0.13333333  0.06666667  0.00000000       0.002
   0.20000000  0.06666667  0.00000000       0.002
   0.26666667  0.06666667  0.00000000       0.002
   0.33333333  0.06666667  0.00000000       0.002
   0.40000000  0.06666667  0.00000000       0.002
   0.46666667  0.06666667  0.00000000       0.002
   0.13333333  0.13333333  0.00000000       0.001
   0.20000000  0.13333333  0.00000000       0.002
   0.26666667  0.13333333  0.00000000       0.002
   0.33333333  0.13333333  0.00000000       0.002
   0.40000000  0.13333333  0.00000000       0.002
   0.46666667  0.13333333  0.00000000       0.002
   0.20000000  0.20000000  0.00000000       0.001
   0.26666667  0.20000000  0.00000000       0.002
   0.33333333  0.20000000  0.00000000       0.002
   0.40000000  0.20000000  0.00000000       0.002
   0.46666667  0.20000000  0.00000000       0.002
   0.26666667  0.26666667  0.00000000       0.001
   0.33333333  0.26666667  0.00000000       0.002
   0.40000000  0.26666667  0.00000000       0.002
   0.46666667  0.26666667  0.00000000       0.002
   0.33333333  0.33333333  0.00000000       0.001
   0.40000000  0.33333333  0.00000000       0.002
   0.46666667  0.33333333  0.00000000       0.002
   0.40000000  0.40000000  0.00000000       0.001
   0.46666667  0.40000000  0.00000000       0.002
   0.46666667  0.46666667  0.00000000       0.001
   0.00000000  0.00000000  0.06666667       0.001
   0.06666667  0.00000000  0.06666667       0.002
   0.13333333  0.00000000  0.06666667       0.002
   0.20000000  0.00000000  0.06666667       0.002
   0.26666667  0.00000000  0.06666667       0.002
   0.33333333  0.00000000  0.06666667       0.002
   0.40000000  0.00000000  0.06666667       0.002
   0.46666667  0.00000000  0.06666667       0.002
   0.06666667  0.06666667  0.06666667       0.002
   0.13333333  0.06666667  0.06666667       0.005
   0.20000000  0.06666667  0.06666667       0.005
   0.26666667  0.06666667  0.06666667       0.005
   0.33333333  0.06666667  0.06666667       0.005
   0.40000000  0.06666667  0.06666667       0.005
   0.46666667  0.06666667  0.06666667       0.005
   0.13333333  0.13333333  0.06666667       0.002
   0.20000000  0.13333333  0.06666667       0.005
   0.26666667  0.13333333  0.06666667       0.005
   0.33333333  0.13333333  0.06666667       0.005
   0.40000000  0.13333333  0.06666667       0.005
   0.46666667  0.13333333  0.06666667       0.005
   0.20000000  0.20000000  0.06666667       0.002
   0.26666667  0.20000000  0.06666667       0.005
   0.33333333  0.20000000  0.06666667       0.005
   0.40000000  0.20000000  0.06666667       0.005
   0.46666667  0.20000000  0.06666667       0.005
   0.26666667  0.26666667  0.06666667       0.002
   0.33333333  0.26666667  0.06666667       0.005
   0.40000000  0.26666667  0.06666667       0.005
   0.46666667  0.26666667  0.06666667       0.005
   0.33333333  0.33333333  0.06666667       0.002
   0.40000000  0.33333333  0.06666667       0.005
   0.46666667  0.33333333  0.06666667       0.005
   0.40000000  0.40000000  0.06666667       0.002
   0.46666667  0.40000000  0.06666667       0.005
   0.46666667  0.46666667  0.06666667       0.002
   0.00000000  0.00000000  0.13333333       0.001
   0.06666667  0.00000000  0.13333333       0.002
   0.13333333  0.00000000  0.13333333       0.002
   0.20000000  0.00000000  0.13333333       0.002
   0.26666667  0.00000000  0.13333333       0.002
   0.33333333  0.00000000  0.13333333       0.002
   0.40000000  0.00000000  0.13333333       0.002
   0.46666667  0.00000000  0.13333333       0.002
   0.06666667  0.06666667  0.13333333       0.002
   0.13333333  0.06666667  0.13333333       0.005
   0.20000000  0.06666667  0.13333333       0.005
[...]
    116      13.6000      0.00000
    117      13.8250      0.00000
    118      13.9402      0.00000
    119      14.0351      0.00000
    120      14.0351      0.00000
    121      14.0640      0.00000
    122      14.2035      0.00000
    123      14.2035      0.00000
    124      14.2213      0.00000
    125      16.2422      0.00000
    126      16.3321      0.00000


--------------------------------------------------------------------------------------------------------


 soft charge-density along one line, spin component           1
         0         1         2         3         4         5         6         7         8         9
 total charge-density along one line
 
 soft charge-density along one line, spin component           2
         0         1         2         3         4         5         6         7         8         9
 total charge-density along one line
 
 pseudopotential strength for first ion, spin component:           1
-45.006  -0.000   0.000   7.602   0.000  -0.000   0.000  -0.000
 -0.000 -45.006  -0.000   0.000   7.602   0.000   0.012   0.000
  0.000  -0.000 -45.006  -0.000   0.000   7.602   0.000   0.012
  7.602   0.000  -0.000   5.645   0.000  -0.000  -0.000   0.000
  0.000   7.602   0.000   0.000   5.647   0.000  -0.006  -0.000
 -0.000   0.000   7.602  -0.000   0.000   5.645  -0.000  -0.006
  0.000   0.012   0.000  -0.000  -0.006  -0.000  -2.132  -0.000
 -0.000   0.000   0.012   0.000  -0.000  -0.006  -0.000  -2.107
 -0.000  -0.000  -0.000   0.000   0.000   0.000  -0.000   0.000
  0.012   0.000  -0.000  -0.006  -0.000   0.000  -0.000   0.000
 -0.000  -0.000   0.000   0.000   0.000  -0.000   0.000   0.000
  0.000   0.012   0.000  -0.000  -0.006  -0.000  -2.647  -0.000
 -0.000   0.000   0.012   0.000  -0.000  -0.006  -0.000  -2.622
 -0.000  -0.000  -0.000   0.000   0.000   0.000  -0.000   0.000
  0.012   0.000  -0.000  -0.006  -0.000   0.000  -0.000   0.000
 -0.000  -0.000   0.000   0.000   0.000  -0.000   0.000   0.000
 -0.000   0.000  -0.000  -0.000   0.000  -0.000  -0.000   0.000
 -0.000   0.000  -0.000  -0.000   0.000  -0.000  -0.000   0.000
 pseudopotential strength for first ion, spin component:           2
-43.260  -0.000   0.000   6.866   0.000  -0.000   0.000  -0.000
 -0.000 -43.269  -0.000   0.000   6.870   0.000  -0.012   0.000
  0.000  -0.000 -43.260  -0.000   0.000   6.866   0.000  -0.012
  6.866   0.000  -0.000   5.852   0.000  -0.000  -0.000   0.000
  0.000   6.870   0.000   0.000   5.852   0.000   0.006  -0.000
 -0.000   0.000   6.866  -0.000   0.000   5.852  -0.000   0.006
  0.000  -0.012   0.000  -0.000   0.006  -0.000  -0.740   0.000
 -0.000   0.000  -0.012   0.000  -0.000   0.006   0.000  -0.769
 -0.000  -0.000  -0.000   0.000   0.000   0.000  -0.000  -0.000
 -0.012   0.000  -0.000   0.006  -0.000   0.000   0.000   0.000
 -0.000  -0.000   0.000   0.000   0.000  -0.000   0.000   0.000
  0.000  -0.012   0.000  -0.000   0.006  -0.000  -1.277   0.000
 -0.000   0.000  -0.012   0.000  -0.000   0.006   0.000  -1.306
 -0.000  -0.000  -0.000   0.000   0.000   0.000  -0.000  -0.000
 -0.012   0.000  -0.000   0.006  -0.000   0.000   0.000   0.000
 -0.000  -0.000   0.000   0.000   0.000  -0.000   0.000   0.000
 -0.000   0.000  -0.000  -0.000   0.000  -0.000  -0.000   0.000
 -0.000   0.000  -0.000  -0.000   0.000  -0.000  -0.000   0.000
 total augmentation occupancy for first ion, spin component:           1
  1.994  -0.000   0.000  -0.020  -0.000   0.000   0.000  -0.000   0.000  -0.006   0.000  -0.000   0.000  -0.000   0.006   0.000
 -0.000   1.994   0.000   0.000  -0.019   0.000  -0.005  -0.000   0.000   0.000   0.000   0.006   0.000   0.000   0.000   0.000
  0.000   0.000   1.994   0.000  -0.000  -0.020  -0.000  -0.006   0.000  -0.000   0.000   0.000   0.006   0.000   0.000   0.000
 -0.020   0.000   0.000   0.172  -0.000   0.000   0.000  -0.000  -0.000  -0.050   0.000   0.000   0.000  -0.000   0.015  -0.000
 -0.000  -0.019   0.000  -0.000   0.164  -0.000  -0.049   0.000   0.000  -0.000   0.000   0.013   0.000   0.000   0.000   0.000
  0.000  -0.000  -0.020   0.000  -0.000   0.172   0.000  -0.050   0.000  -0.000   0.000  -0.000   0.015   0.000   0.000   0.000
  0.000  -0.005   0.000  -0.000  -0.049   0.000   2.004   0.000  -0.000   0.000   0.000  -1.098  -0.000   0.000   0.000   0.000
 -0.000  -0.000  -0.006  -0.000   0.000  -0.050  -0.000   1.963   0.000  -0.000   0.000  -0.000  -1.060  -0.000  -0.000   0.000
 -0.000   0.000   0.000  -0.000  -0.000   0.000   0.000   0.000   2.411   0.000  -0.000   0.000   0.000  -1.370  -0.000  -0.000
 -0.006  -0.000  -0.000  -0.050  -0.000  -0.000  -0.000  -0.000   0.000   1.963   0.000  -0.000   0.000  -0.000  -1.060   0.000
  0.000   0.000   0.000   0.000   0.000   0.000  -0.000   0.000  -0.000  -0.000   2.372   0.000  -0.000   0.000   0.000  -1.351
  0.000   0.006   0.000   0.000   0.013  -0.000  -1.098  -0.000   0.000  -0.000  -0.000   1.590  -0.000  -0.000   0.000   0.000
  0.000   0.000   0.006   0.000   0.000   0.015   0.000  -1.060  -0.000  -0.000  -0.000   0.000   1.586   0.000   0.000   0.000
  0.000   0.000  -0.000   0.000   0.000   0.000   0.000  -0.000  -1.370   0.000  -0.000   0.000   0.000   1.575   0.000   0.000
  0.006   0.000   0.000   0.015   0.000   0.000   0.000  -0.000   0.000  -1.060  -0.000  -0.000   0.000   0.000   1.586   0.000
  0.000   0.000   0.000  -0.000   0.000   0.000   0.000   0.000  -0.000   0.000  -1.351   0.000  -0.000   0.000   0.000   1.604
 -0.000   0.000   0.000  -0.000   0.000  -0.000   0.000   0.000   0.008  -0.000   0.000   0.000  -0.000  -0.023   0.000  -0.000
  0.000   0.000   0.000  -0.000   0.000  -0.000   0.000   0.000   0.002  -0.000  -0.000   0.000   0.000  -0.000   0.000   0.000
 total augmentation occupancy for first ion, spin component:           2
 -0.002   0.000   0.000  -0.007   0.000   0.000  -0.000   0.000  -0.000  -0.009  -0.000  -0.000   0.000  -0.000   0.010   0.000
  0.000  -0.002  -0.000  -0.000  -0.007   0.000  -0.009   0.000   0.000   0.000  -0.000   0.009  -0.000   0.000   0.000   0.000
  0.000  -0.000  -0.002   0.000  -0.000  -0.007   0.000  -0.009  -0.000   0.000  -0.000   0.000   0.010   0.000   0.000   0.000
 -0.007   0.000   0.000  -0.008   0.000   0.000  -0.000  -0.000   0.000   0.043  -0.000  -0.000   0.000   0.000   0.000  -0.000
  0.000  -0.007  -0.000   0.000  -0.003  -0.000   0.046   0.000   0.000  -0.000  -0.000  -0.002   0.000   0.000  -0.000   0.000
  0.000   0.000  -0.007   0.000  -0.000  -0.008   0.000   0.043   0.000   0.000  -0.000   0.000   0.000   0.000   0.000   0.000
 -0.000  -0.009   0.000  -0.000   0.046   0.000   1.293   0.000   0.000  -0.000   0.000  -0.344  -0.000  -0.000   0.000   0.000
  0.000   0.000  -0.009   0.000   0.000   0.043   0.000   1.187   0.000   0.000   0.000  -0.000  -0.316  -0.000  -0.000  -0.000
 -0.000   0.000   0.000  -0.000   0.000   0.000   0.000   0.000   1.935  -0.000   0.000  -0.000   0.000  -0.616   0.000   0.000
 -0.009   0.000   0.000   0.043  -0.000   0.000   0.000  -0.000  -0.000   1.187   0.000   0.000   0.000   0.000  -0.316   0.000
 -0.000  -0.000  -0.000  -0.000  -0.000  -0.000  -0.000  -0.000   0.000   0.000   1.926   0.000  -0.000   0.000  -0.000  -0.624
  0.000   0.009   0.000  -0.000  -0.002   0.000  -0.344  -0.000   0.000   0.000  -0.000  -0.182  -0.000   0.000   0.000  -0.000
  0.000  -0.000   0.010  -0.000   0.000   0.000   0.000  -0.316  -0.000  -0.000  -0.000   0.000  -0.183   0.000   0.000   0.000
  0.000   0.000   0.000   0.000   0.000   0.000  -0.000   0.000  -0.616   0.000   0.000  -0.000   0.000  -0.036   0.000   0.000
  0.010  -0.000   0.000   0.000   0.000   0.000   0.000   0.000  -0.000  -0.316   0.000   0.000   0.000   0.000  -0.183   0.000
  0.000   0.000  -0.000  -0.000   0.000   0.000   0.000   0.000   0.000   0.000  -0.624   0.000   0.000  -0.000   0.000  -0.053
 -0.000   0.000  -0.000   0.000   0.000  -0.000   0.000   0.000   0.001  -0.000  -0.000  -0.000   0.000   0.018   0.000  -0.000
  0.000   0.000  -0.000   0.000   0.000   0.000   0.000  -0.000   0.002  -0.000   0.000   0.000  -0.000  -0.001   0.000   0.000


------------------------ aborting loop because EDIFF is reached ----------------------------------------





 total charge

# of ion       s       p       d       tot
------------------------------------------
    1        0.314   6.316   6.208  12.838
    2        0.314   6.316   6.208  12.838
    3        0.314   6.316   6.208  12.838
    4        0.314   6.316   6.208  12.838
    5        0.335   6.309   6.026  12.669
    6        0.335   6.309   6.026  12.669
    7        0.335   6.309   6.026  12.669
    8        0.335   6.309   6.026  12.669
    9        0.392   6.408   7.445  14.245
   10        0.392   6.408   7.445  14.245
   11        0.392   6.408   7.445  14.245
   12        0.392   6.408   7.445  14.245
   13        1.309   2.057   0.367   3.732
   14        1.309   2.057   0.367   3.732
   15        1.309   2.057   0.367   3.732
   16        1.309   2.057   0.367   3.732
--------------------------------------------------
tot          9.402  84.353  80.184 173.939



 magnetization (x)

# of ion       s       p       d       tot
------------------------------------------
    1        0.004  -0.014   2.062   2.052
    2        0.004  -0.014   2.062   2.052
    3        0.004  -0.014   2.062   2.052
    4        0.004  -0.014   2.062   2.052
    5        0.002  -0.006   2.734   2.729
    6        0.002  -0.006   2.734   2.729
    7        0.002  -0.006   2.734   2.729
    8        0.002  -0.006   2.734   2.729
    9       -0.004  -0.021   1.011   0.986
   10       -0.004  -0.021   1.011   0.986
   11       -0.004  -0.021   1.011   0.986
   12       -0.004  -0.021   1.011   0.986
   13       -0.001  -0.086  -0.028  -0.116
   14       -0.001  -0.086  -0.028  -0.116
   15       -0.001  -0.086  -0.028  -0.116
   16       -0.001  -0.086  -0.028  -0.116
--------------------------------------------------
tot          0.002  -0.505  23.110  22.606
 
    CHARGE:  cpu time    1.3641: real time    1.3667
    FORLOC:  cpu time    0.0000: real time    0.0015
    FORNL :  cpu time   11.7007: real time   11.7563
    STRESS:  cpu time   35.2862: real time   35.4349
    FORCOR:  cpu time    0.0400: real time    0.0386
    FORHAR:  cpu time    0.0040: real time    0.0063
    MIXING:  cpu time    0.0040: real time    0.0012
    OFIELD:  cpu time    0.0000: real time    0.0000

  FORCE on cell =-STRESS in cart. coord.  units (eV):
  Direction    XX          YY          ZZ          XY          YZ          ZX
  --------------------------------------------------------------------------------------
  Alpha Z  1107.88759  1107.88759  1107.88759
  Ewald   -6915.35234 -6915.35234 -6956.66054    -0.00000    -0.00000    -0.00000
  Hartree  3064.36418  3064.36418  3030.44931    -0.00000    -0.00000    -0.00000
  E(xc)   -1192.44327 -1192.44327 -1192.44676     0.00000    -0.00000    -0.00000
  Local     713.29103   713.29103   793.56878     0.00000    -0.00000    -0.00000
  n-local  -202.01345  -197.30359  -200.25426    -0.35670    -0.57456    -0.14155
  augment  1669.31279  1669.31279  1666.50625     0.00000     0.00002     0.00002
  Kinetic  1749.33671  1756.27382  1750.95445    -1.09217    -0.39946    -0.30720
  Fock        0.00000     0.00000     0.00000     0.00000     0.00000     0.00000
  -------------------------------------------------------------------------------------
  Total       0.20671     0.20671     0.00482     0.00000     0.00000     0.00000
  in kB       1.54574     1.54574     0.03604     0.00000     0.00000     0.00000
  external pressure =        1.04 kB  Pullay stress =        0.00 kB


 VOLUME and BASIS-vectors are now :
 -----------------------------------------------------------------------------
  energy-cutoff  :      500.00
  volume of cell :      214.26
      direct lattice vectors                 reciprocal lattice vectors
     5.945690009  0.000000000  0.000000000     0.168189058  0.000000000  0.000000000
     0.000000000  5.945690009  0.000000000     0.000000000  0.168189058  0.000000000
     0.000000000  0.000000000  6.060829352     0.000000000  0.000000000  0.164993921

  length of vectors
     5.945690009  5.945690009  6.060829352     0.168189058  0.168189058  0.164993921


 FORCES acting on ions
    electron-ion (+dipol)            ewald-force                    non-local-force                 convergence-correction
 -----------------------------------------------------------------------------------------------
   0.377E-13 0.179E-11 0.176E-11   -.121E-12 -.924E-13 -.782E-13   -.867E-18 -.260E-17 0.000E+00   0.371E-12 -.355E-13 0.936E-12
   -.305E-12 -.875E-13 0.180E-11   -.121E-12 -.995E-13 -.213E-13   0.173E-17 -.130E-17 0.000E+00   -.587E-12 -.480E-12 0.169E-12
   0.143E-11 0.193E-11 0.806E-11   -.107E-12 -.924E-13 -.213E-13   0.173E-17 -.130E-17 0.000E+00   -.689E-12 -.483E-12 0.120E-12
   0.192E-11 -.112E-12 0.970E-11   -.107E-12 -.995E-13 -.782E-13   -.867E-18 -.260E-17 0.000E+00   0.377E-12 -.168E-14 0.855E-12
   0.769E-12 -.327E-11 -.330E+01   0.577E-13 0.555E-13 0.503E+01   0.651E-18 0.108E-18 -.173E+01   0.183E-12 0.260E-12 -.397E-02
   0.231E-11 0.390E-11 -.330E+01   0.882E-13 0.536E-13 0.503E+01   0.651E-18 0.108E-18 -.173E+01   -.212E-12 0.248E-12 -.397E-02
   0.795E-12 0.621E-12 0.330E+01   0.869E-13 0.839E-13 -.503E+01   -.867E-18 -.217E-18 0.173E+01   0.350E-12 0.465E-12 0.397E-02
   0.232E-11 0.266E-11 0.330E+01   0.601E-13 0.856E-13 -.503E+01   -.867E-18 0.000E+00 0.173E+01   -.105E-12 0.406E-12 0.397E-02
   0.184E-11 0.194E-10 0.110E-10   0.639E-13 0.142E-13 0.000E+00   -.694E-17 -.217E-17 0.867E-18   0.303E-12 -.186E-13 0.589E-12
   -.114E-12 -.545E-13 -.226E-12   0.639E-13 0.142E-13 0.000E+00   0.000E+00 -.217E-17 0.867E-18   0.437E-12 0.822E-14 0.608E-12
   0.203E-11 -.584E-13 0.320E-10   0.497E-13 0.426E-13 0.568E-13   0.867E-18 0.434E-18 0.000E+00   -.681E-12 -.582E-12 -.381E-12
   -.153E-12 0.200E-11 -.198E-12   0.426E-13 0.568E-13 0.568E-13   0.434E-17 0.217E-17 0.000E+00   -.627E-12 -.656E-12 -.264E-12
   -.349E-13 0.170E-12 -.127E+02   -.684E-14 -.645E-14 0.124E+02   0.000E+00 -.542E-19 0.293E+00   0.532E-13 -.158E-13 -.745E-03
   -.318E-13 -.424E-12 0.127E+02   -.836E-14 -.144E-13 -.124E+02   -.542E-19 0.217E-18 -.293E+00   0.570E-13 -.168E-13 0.745E-03
   -.552E-13 0.375E-11 -.127E+02   -.200E-13 -.634E-14 0.124E+02   0.000E+00 -.542E-19 0.293E+00   -.511E-13 -.185E-13 -.745E-03
   -.554E-13 -.206E-11 0.127E+02   -.145E-13 -.153E-13 -.124E+02   0.542E-19 0.217E-18 -.293E+00   -.479E-13 -.168E-13 0.745E-03
 -----------------------------------------------------------------------------------------------
   0.127E-10 0.302E-10 0.801E-10   0.869E-14 -.196E-13 -.213E-13   -.434E-18 -.922E-17 0.000E+00   -.869E-12 -.936E-12 0.783E-12
 
 
 POSITION                                       TOTAL-FORCE (eV/Angst)
 -----------------------------------------------------------------------------------
      0.00000      2.97285      3.03041         0.000000     -0.000000     -0.000000
      0.00000      0.00000      3.03041         0.000000     -0.000000     -0.000000
      2.97285      2.97285      3.03041        -0.000000     -0.000000     -0.000000
      2.97285      0.00000      3.03041         0.000000      0.000000     -0.000000
      1.48642      4.45927      1.57502        -0.000000     -0.000000     -0.009164
      4.45927      1.48642      1.57502        -0.000000      0.000000     -0.009164
      1.48642      1.48642      4.48581         0.000000     -0.000000      0.009164
      4.45927      4.45927      4.48581         0.000000      0.000000      0.009164
      2.97285      2.97285      0.00000         0.000000     -0.000000     -0.000000
      0.00000      0.00000      0.00000         0.000000     -0.000000     -0.000000
      2.97285      0.00000      0.00000         0.000000     -0.000000     -0.000000
      0.00000      2.97285      0.00000        -0.000000      0.000000     -0.000000
      1.48642      1.48642      1.47063         0.000000      0.000000     -0.024788
      1.48642      4.45927      4.59020         0.000000     -0.000000      0.024788
      4.45927      4.45927      1.47063         0.000000     -0.000000     -0.024788
      4.45927      1.48642      4.59020        -0.000000     -0.000000      0.024788
 -----------------------------------------------------------------------------------
    total drift:                                0.000000      0.000000      0.000000


--------------------------------------------------------------------------------------------------------



  FREE ENERGIE OF THE ION-ELECTRON SYSTEM (eV)
  ---------------------------------------------------
  free  energy   TOTEN  =      -109.28933844 eV

  energy  without entropy=     -109.28835525  energy(sigma->0) =     -109.28901071
 


--------------------------------------------------------------------------------------------------------


    POTLOK:  cpu time    0.1400: real time    0.1402


--------------------------------------------------------------------------------------------------------


     LOOP+:  cpu time 1479.5445: real time 1486.1539
    4ORBIT:  cpu time    0.0000: real time    0.0000



 total charge

# of ion       s       p       d       tot
------------------------------------------
    1        0.314   6.316   6.208  12.838
    2        0.314   6.316   6.208  12.838
    3        0.314   6.316   6.208  12.838
    4        0.314   6.316   6.208  12.838
    5        0.335   6.309   6.026  12.669
    6        0.335   6.309   6.026  12.669
    7        0.335   6.309   6.026  12.669
    8        0.335   6.309   6.026  12.669
    9        0.392   6.408   7.445  14.245
   10        0.392   6.408   7.445  14.245
   11        0.392   6.408   7.445  14.245
   12        0.392   6.408   7.445  14.245
   13        1.309   2.057   0.367   3.732
   14        1.309   2.057   0.367   3.732
   15        1.309   2.057   0.367   3.732
   16        1.309   2.057   0.367   3.732
--------------------------------------------------
tot          9.402  84.353  80.184 173.939



 magnetization (x)

# of ion       s       p       d       tot
------------------------------------------
    1        0.004  -0.014   2.062   2.052
    2        0.004  -0.014   2.062   2.052
    3        0.004  -0.014   2.062   2.052
    4        0.004  -0.014   2.062   2.052
    5        0.002  -0.006   2.734   2.729
    6        0.002  -0.006   2.734   2.729
    7        0.002  -0.006   2.734   2.729
    8        0.002  -0.006   2.734   2.729
    9       -0.004  -0.021   1.011   0.986
   10       -0.004  -0.021   1.011   0.986
   11       -0.004  -0.021   1.011   0.986
   12       -0.004  -0.021   1.011   0.986
   13       -0.001  -0.086  -0.028  -0.116
   14       -0.001  -0.086  -0.028  -0.116
   15       -0.001  -0.086  -0.028  -0.116
   16       -0.001  -0.086  -0.028  -0.116
--------------------------------------------------
tot          0.002  -0.505  23.110  22.606
 

 total amount of memory used by VASP MPI-rank0   181503. kBytes
=======================================================================

   base      :      30000. kBytes
   nonlr-proj:       5041. kBytes
   fftplans  :       3129. kBytes
   grid      :       2764. kBytes
   one-center:         62. kBytes
   wavefun   :     140507. kBytes
 
  
  
 General timing and accounting informations for this job:
 ========================================================
  
                  Total CPU time used (sec):     1511.406
                            User time (sec):     1506.102
                          System time (sec):        5.304
                         Elapsed time (sec):     1519.417
  
                   Maximum memory used (kb):      246436.
                   Average memory used (kb):          N/A
  
                          Minor page faults:       270320
                          Major page faults:            0
                 Voluntary context switches:         1823
