 vasp.6.1.1 19Jun20 (build Jan 21 2021 08:43:03) complex                        
  
 executed on             LinuxIFC date 2023.04.01  04:17:09
 running on   80 total cores
 distrk:  each k-point on   80 cores,    1 groups
 distr:  one band on NCORE=  10 cores,    8 groups


--------------------------------------------------------------------------------------------------------


 INCAR:
 POTCAR:    PAW_PBE Fe_pv 02Aug2007               
 POTCAR:    PAW_PBE Co_pv 23Apr2009               
 POTCAR:      PAW_PBE Sn 08Apr2002                
 POTCAR:    PAW_PBE Fe_pv 02Aug2007               
   VRHFIN =Fe:  3pd7s1                                                                              
   LEXCH  = PE                                                                                      
   EATOM  =  2457.4239 eV,  180.6156 Ry                                                             
                                                                                                    
   TITEL  = PAW_PBE Fe_pv 02Aug2007                                                                 
   LULTRA =        F    use ultrasoft PP ?                                                          
   IUNSCR =        1    unscreen: 0-lin 1-nonlin 2-no                                               
   RPACOR =    1.750    partial core radius                                                         
   POMASS =   55.847; ZVAL   =   14.000    mass and valenz                                          
   RCORE  =    2.200    outmost cutoff radius                                                       
   RWIGS  =    2.200; RWIGS  =    1.164    wigner-seitz radius (au A)                               
   ENMAX  =  293.238; ENMIN  =  219.928 eV                                                          
   ICORE  =        3    local potential                                                             
   LCOR   =        T    correct aug charges                                                         
   LPAW   =        T    paw PP                                                                      
   EAUG   =  578.342                                                                                
   DEXC   =    0.000                                                                                
   RMAX   =    2.249    core radius for proj-oper                                                   
   RAUG   =    1.300    factor for augmentation sphere                                              
   RDEP   =    2.296    radius for radial grids                                                     
   RDEPT  =    1.766    core radius for aug-charge                                                  
                                                                                                    
   Atomic configuration                                                                             
    8 entries                                                                                       
     n  l   j            E        occ.                                                              
     1  0  0.50     -6993.8440   2.0000                                                             
     2  0  0.50      -814.6047   2.0000                                                             
     2  1  1.50      -693.3689   6.0000                                                             
     3  0  0.50       -89.4732   2.0000                                                             
     3  1  1.50       -55.6373   6.0000                                                             
     3  2  2.50        -3.8151   7.0000                                                             
     4  0  0.50        -4.2551   1.0000                                                             
     4  3  2.50        -1.3606   0.0000                                                             
   Description                                                                                      
     l       E           TYP  RCUT    TYP  RCUT                                                     
     1    -55.6372668     23  2.000                                                                 
     1     -5.4423304     23  2.000                                                                 
     2     -3.8151096     23  2.200                                                                 
     2     -5.1756922     23  2.200                                                                 
     0     -4.2550951     23  2.200                                                                 
     0     27.2116520     23  2.200                                                                 
     3     -1.3605826     23  2.200                                                                 
  local pseudopotential read in
  partial core-charges read in
  partial kinetic energy density read in
  atomic valenz-charges read in
  non local Contribution for L=           1  read in
    real space projection operators read in
  non local Contribution for L=           1  read in
    real space projection operators read in
  non local Contribution for L=           2  read in
    real space projection operators read in
  non local Contribution for L=           2  read in
    real space projection operators read in
  non local Contribution for L=           0  read in
    real space projection operators read in
  non local Contribution for L=           0  read in
    real space projection operators read in
    PAW grid and wavefunctions read in
 
   number of l-projection  operators is LMAX  =           6
   number of lm-projection operators is LMMAX =          18
 
 POTCAR:    PAW_PBE Co_pv 23Apr2009               
   VRHFIN =Co: 3pd7s1                                                                               
   LEXCH  = PE                                                                                      
   EATOM  =  2948.1334 eV,  216.6817 Ry                                                             
                                                                                                    
   TITEL  = PAW_PBE Co_pv 23Apr2009                                                                 
   LULTRA =        F    use ultrasoft PP ?                                                          
   IUNSCR =        1    unscreen: 0-lin 1-nonlin 2-no                                               
   RPACOR =    2.000    partial core radius                                                         
   POMASS =   58.933; ZVAL   =   15.000    mass and valenz                                          
   RCORE  =    2.300    outmost cutoff radius                                                       
   RWIGS  =    2.460; RWIGS  =    1.302    wigner-seitz radius (au A)                               
   ENMAX  =  271.042; ENMIN  =  203.281 eV                                                          
   ICORE  =        3    local potential                                                             
   LCOR   =        T    correct aug charges                                                         
   LPAW   =        T    paw PP                                                                      
   EAUG   =  543.066                                                                                
   DEXC   =    0.000                                                                                
   RMAX   =    2.360    core radius for proj-oper                                                   
   RAUG   =    1.300    factor for augmentation sphere                                              
   RDEP   =    2.393    radius for radial grids                                                     
   RDEPT  =    1.841    core radius for aug-charge                                                  
                                                                                                    
   Atomic configuration                                                                             
    8 entries                                                                                       
     n  l   j            E        occ.                                                              
     1  0  0.50     -7587.6674   2.0000                                                             
     2  0  0.50      -893.6084   2.0000                                                             
     2  1  1.50      -764.5805   6.0000                                                             
     3  0  0.50       -97.5973   2.0000                                                             
     3  1  1.50       -60.9648   6.0000                                                             
     3  2  2.50        -4.2382   8.0000                                                             
     4  0  0.50        -4.3746   1.0000                                                             
     4  3  2.50        -1.3606   0.0000                                                             
   Description                                                                                      
     l       E           TYP  RCUT    TYP  RCUT                                                     
     1    -60.9647990     23  2.000                                                                 
     1     -5.4423304     23  2.000                                                                 
     2     -4.2382362     23  2.300                                                                 
     2     -5.5988188     23  2.300                                                                 
     0     -4.3745797     23  2.300                                                                 
     0      5.7660125     23  2.300                                                                 
     3     -1.3605826     23  2.300                                                                 
  local pseudopotential read in
  partial core-charges read in
  partial kinetic energy density read in
  atomic valenz-charges read in
  non local Contribution for L=           1  read in
    real space projection operators read in
  non local Contribution for L=           1  read in
    real space projection operators read in
  non local Contribution for L=           2  read in
    real space projection operators read in
  non local Contribution for L=           2  read in
    real space projection operators read in
  non local Contribution for L=           0  read in
    real space projection operators read in
  non local Contribution for L=           0  read in
    real space projection operators read in
    PAW grid and wavefunctions read in
 
   number of l-projection  operators is LMAX  =           6
   number of lm-projection operators is LMMAX =          18
 
 POTCAR:      PAW_PBE Sn 08Apr2002                
   VRHFIN =Sn: s2p2                                                                                 
   LEXCH  = PE                                                                                      
   EATOM  =    94.0860 eV,    6.9151 Ry                                                             
                                                                                                    
   TITEL  = PAW_PBE Sn 08Apr2002                                                                    
   LULTRA =        F    use ultrasoft PP ?                                                          
   IUNSCR =        1    unscreen: 0-lin 1-nonlin 2-no                                               
   RPACOR =    2.000    partial core radius                                                         
   POMASS =  118.710; ZVAL   =    4.000    mass and valenz                                          
   RCORE  =    3.000    outmost cutoff radius                                                       
   RWIGS  =    2.960; RWIGS  =    1.566    wigner-seitz radius (au A)                               
   ENMAX  =  103.236; ENMIN  =   77.427 eV                                                          
   ICORE  =        3    local potential                                                             
   LCOR   =        T    correct aug charges                                                         
   LPAW   =        T    paw PP                                                                      
   EAUG   =  263.585                                                                                
   DEXC   =    0.000                                                                                
   RMAX   =    3.078    core radius for proj-oper                                                   
   RAUG   =    1.300    factor for augmentation sphere                                              
   RDEP   =    3.022    radius for radial grids                                                     
   RDEPT  =    2.655    core radius for aug-charge                                                  
                                                                                                    
   Atomic configuration                                                                             
   13 entries                                                                                       
     n  l   j            E        occ.                                                              
     1  0  0.50    -29007.2859   2.0000                                                             
     2  0  0.50     -4378.8056   2.0000                                                             
     2  1  1.50     -3930.4293   6.0000                                                             
     3  0  0.50      -845.0264   2.0000                                                             
     3  1  1.50      -698.5725   6.0000                                                             
     3  2  2.50      -473.2839  10.0000                                                             
     4  0  0.50      -133.9036   2.0000                                                             
     4  1  1.50       -89.6752   6.0000                                                             
     4  2  2.50       -25.8375  10.0000                                                             
     5  0  0.50       -10.5484   2.0000                                                             
     5  1  0.50        -3.6940   2.0000                                                             
     5  2  1.50        -1.3606   0.0000                                                             
     4  3  2.50        -4.0817   0.0000                                                             
   Description                                                                                      
     l       E           TYP  RCUT    TYP  RCUT                                                     
     0    -10.5483727     23  3.000                                                                 
     0     27.2116520     23  3.000                                                                 
     1     -3.6939829     23  3.000                                                                 
     1      1.9821976     23  3.000                                                                 
     2     -1.3605826     23  3.000                                                                 
     3     -2.7211652     23  3.000                                                                 
  local pseudopotential read in
  partial core-charges read in
  partial kinetic energy density read in
  atomic valenz-charges read in
  non local Contribution for L=           0  read in
    real space projection operators read in
  non local Contribution for L=           0  read in
    real space projection operators read in
  non local Contribution for L=           1  read in
    real space projection operators read in
  non local Contribution for L=           1  read in
    real space projection operators read in
  non local Contribution for L=           2  read in
    real space projection operators read in
    PAW grid and wavefunctions read in
 
   number of l-projection  operators is LMAX  =           5
   number of lm-projection operators is LMMAX =          13
 
 Optimization of the real space projectors (new method)

 maximal supplied QI-value         = 17.01
 optimisation between [QCUT,QGAM] = [ 11.40, 22.79] = [ 36.36,145.44] Ry 
 Optimized for a Real-space Cutoff    1.47 Angstroem

   l    n(q)    QCUT    max X(q) W(low)/X(q) W(high)/X(q)  e(spline) 
   1     10    11.395     4.267    0.90E-04    0.11E-03    0.18E-06
   1     10    11.395     5.750    0.14E-03    0.15E-03    0.25E-06
   2      9    11.395    53.656    0.13E-03    0.36E-04    0.15E-06
   2      9    11.395    49.521    0.14E-03    0.36E-04    0.15E-06
   0     10    11.395    31.246    0.58E-04    0.17E-05    0.98E-07
   0     10    11.395    12.201    0.41E-04    0.11E-05    0.82E-07
 Optimization of the real space projectors (new method)

 maximal supplied QI-value         = 16.25
 optimisation between [QCUT,QGAM] = [ 11.38, 22.75] = [ 36.24,144.96] Ry 
 Optimized for a Real-space Cutoff    1.47 Angstroem

   l    n(q)    QCUT    max X(q) W(low)/X(q) W(high)/X(q)  e(spline) 
   1     10    11.376     4.946    0.88E-04    0.16E-03    0.15E-06
   1     10    11.376     5.991    0.13E-03    0.24E-03    0.21E-06
   2      9    11.376    46.947    0.87E-04    0.91E-04    0.20E-06
   2      9    11.376    42.928    0.91E-04    0.94E-04    0.20E-06
   0     10    11.376    68.324    0.58E-04    0.21E-04    0.82E-07
   0     10    11.376    36.926    0.52E-04    0.19E-04    0.78E-07
 Optimization of the real space projectors (new method)

 maximal supplied QI-value         = 12.47
 optimisation between [QCUT,QGAM] = [ 11.35, 22.82] = [ 36.07,145.88] Ry 
 Optimized for a Real-space Cutoff    1.66 Angstroem

   l    n(q)    QCUT    max X(q) W(low)/X(q) W(high)/X(q)  e(spline) 
   0     11    11.350    14.688    0.21E-04    0.12E-04    0.45E-07
   0     11    11.350     7.308    0.36E-04    0.28E-04    0.12E-06
   1     11    11.350    45.102    0.58E-04    0.28E-04    0.33E-06
   1     11    11.350    30.691    0.55E-04    0.27E-04    0.31E-06
   2     10    11.350     7.156    0.77E-05    0.22E-04    0.47E-07
  PAW_PBE Fe_pv 02Aug2007               :
 energy of atom  1       EATOM=-2457.4239
 kinetic energy error for atom=    0.0069 (will be added to EATOM!!)
  PAW_PBE Co_pv 23Apr2009               :
 energy of atom  2       EATOM=-2948.1334
 kinetic energy error for atom=    0.0060 (will be added to EATOM!!)
    PAW_PBE Sn 08Apr2002                :
 energy of atom  3       EATOM=  -94.0860
 kinetic energy error for atom=    0.0000 (will be added to EATOM!!)
 
 
 POSCAR: Heusler tetragonGa
  positions in direct lattice
  velocities in cartesian coordinates
 exchange correlation table for  LEXCH =        8
   RHO(1)=    0.500       N(1)  =     2000
   RHO(2)=  100.500       N(2)  =     4000
 


--------------------------------------------------------------------------------------------------------


 ion  position               nearest neighbor table
   1  0.250  0.250  0.250-   9 2.60  10 2.60  11 2.60  12 2.60  13 2.60  14 2.60  15 2.60  16 2.60

   2  0.250  0.750  0.250-   9 2.60  10 2.60  11 2.60  12 2.60  13 2.60  14 2.60  15 2.60  16 2.60

   3  0.750  0.250  0.250-   9 2.60  10 2.60  11 2.60  12 2.60  13 2.60  14 2.60  15 2.60  16 2.60

   4  0.750  0.750  0.250-   9 2.60  10 2.60  11 2.60  12 2.60  13 2.60  14 2.60  15 2.60  16 2.60

   5  0.250  0.250  0.750-   9 2.60  10 2.60  11 2.60  12 2.60  13 2.60  14 2.60  15 2.60  16 2.60

   6  0.750  0.250  0.750-   9 2.60  10 2.60  11 2.60  12 2.60  13 2.60  14 2.60  15 2.60  16 2.60

   7  0.250  0.750  0.750-   9 2.60  10 2.60  11 2.60  12 2.60  13 2.60  14 2.60  15 2.60  16 2.60

   8  0.750  0.750  0.750-   9 2.60  10 2.60  11 2.60  12 2.60  13 2.60  14 2.60  15 2.60  16 2.60

   9  0.500  0.000  0.000-   1 2.60   2 2.60   3 2.60   4 2.60   5 2.60   6 2.60   7 2.60   8 2.60

  10  0.000  0.500  0.000-   1 2.60   2 2.60   3 2.60   4 2.60   5 2.60   6 2.60   7 2.60   8 2.60

  11  0.000  0.000  0.500-   1 2.60   2 2.60   3 2.60   4 2.60   5 2.60   6 2.60   7 2.60   8 2.60

  12  0.500  0.500  0.500-   1 2.60   2 2.60   3 2.60   4 2.60   5 2.60   6 2.60   7 2.60   8 2.60

  13  0.500  0.000  0.500-   1 2.60   2 2.60   3 2.60   4 2.60   5 2.60   6 2.60   7 2.60   8 2.60

  14  0.000  0.500  0.500-   1 2.60   2 2.60   3 2.60   4 2.60   5 2.60   6 2.60   7 2.60   8 2.60

  15  0.500  0.500  0.000-   1 2.60   2 2.60   3 2.60   4 2.60   5 2.60   6 2.60   7 2.60   8 2.60

  16  0.000  0.000  0.000-   1 2.60   2 2.60   3 2.60   4 2.60   5 2.60   6 2.60   7 2.60   8 2.60

 
  LATTYP: Found a simple tetragonal cell.
 ALAT       =     6.0099862515
 C/A-ratio  =     0.9997879259
  
  Lattice vectors:
  
 A1 = (   6.0099862515,   0.0000000000,   0.0000000000)
 A2 = (   0.0000000000,   6.0099862515,   0.0000000000)
 A3 = (   0.0000000000,   0.0000000000,   6.0087116891)


Analysis of symmetry for initial positions (statically):
=====================================================================
 Subroutine PRICEL returns following result:
 
  LATTYP: Found a body centered tetragonal cell.
 ALAT       =     4.2497020333
 C/A-ratio  =     1.4139136443
  
  Lattice vectors:
  
 A1 = (   3.0049931258,   0.0000000000,   3.0043558446)
 A2 = (  -3.0049931258,   0.0000000000,   3.0043558446)
 A3 = (   0.0000000000,  -3.0049931258,  -3.0043558446)
 
   4 primitive cells build up your supercell.
 

 Routine SETGRP: Setting up the symmetry group for a 
 simple tetragonal supercell.


 Subroutine GETGRP returns: Found 16 space group operations
 (whereof 16 operations were pure point group operations)
 out of a pool of 16 trial point group operations.


The static configuration has the point symmetry D_4h.


Analysis of symmetry for dynamics (positions and initial velocities):
=====================================================================
 Subroutine PRICEL returns following result:
 
  LATTYP: Found a body centered tetragonal cell.
 ALAT       =     4.2497020333
 C/A-ratio  =     1.4139136443
  
  Lattice vectors:
  
 A1 = (   3.0049931258,   0.0000000000,   3.0043558446)
 A2 = (  -3.0049931258,   0.0000000000,   3.0043558446)
 A3 = (   0.0000000000,  -3.0049931258,  -3.0043558446)
 
   4 primitive cells build up your supercell.
 

 Routine SETGRP: Setting up the symmetry group for a 
 simple tetragonal supercell.


 Subroutine GETGRP returns: Found 16 space group operations
 (whereof 16 operations were pure point group operations)
 out of a pool of 16 trial point group operations.


The dynamic configuration has the point symmetry D_4h.


Analysis of structural, dynamic, and magnetic symmetry:
=====================================================================
 Subroutine PRICEL returns following result:
 
  LATTYP: Found a body centered tetragonal cell.
 ALAT       =     4.2497020333
 C/A-ratio  =     1.4139136443
  
  Lattice vectors:
  
 A1 = (   3.0049931258,   0.0000000000,   3.0043558446)
 A2 = (  -3.0049931258,   0.0000000000,   3.0043558446)
 A3 = (   0.0000000000,  -3.0049931258,  -3.0043558446)
 
   4 primitive cells build up your supercell.
 

 Routine SETGRP: Setting up the symmetry group for a 
 simple tetragonal supercell.


 Subroutine GETGRP returns: Found 16 space group operations
 (whereof 16 operations were pure point group operations)
 out of a pool of 16 trial point group operations.


The magnetic configuration has the point symmetry D_4h.


 Subroutine INISYM returns: Found 16 space group operations
 (whereof 16 operations are pure point group operations),
 and found     4 'primitive' translations


----------------------------------------------------------------------------------------

                                     Primitive cell                                     

  volume of cell :      54.2586

  direct lattice vectors                    reciprocal lattice vectors
     3.004993126  0.000000000  3.004355845     0.166389732 -0.166389732  0.166425026
    -3.004993126  0.000000000  3.004355845    -0.166389732 -0.166389732  0.166425026
     0.000000000 -3.004993126 -3.004355845     0.000000000 -0.332779463  0.000000000

  length of vectors
     4.249251431  4.249251431  4.249251431     0.288215848  0.288215848  0.332779463

  position of ions in fractional coordinates (direct lattice)
     0.250000000  0.750000000  0.500000000
     0.750000000  0.250000000  0.500000000
     0.500000000  0.500000000  0.000000000
     1.000000000  1.000000000  0.000000000

  ion indices of the primitive-cell ions
   primitive index   ion index
                 1           1
                 2           5
                 3           9
                 4          13

----------------------------------------------------------------------------------------

 
 
 KPOINTS: Ni7CoMn5CrSn2                           

Automatic generation of k-mesh.
Space group operators:
 irot       det(A)        alpha          n_x          n_y          n_z        tau_x        tau_y        tau_z
    1     1.000000     0.000001     1.000000     0.000000     0.000000     0.000000     0.000000     0.000000
    2    -1.000000     0.000001     1.000000     0.000000     0.000000     0.000000     0.000000     0.000000
    3     1.000000    90.000000     0.000000     0.000000    -1.000000     0.000000     0.000000     0.000000
    4    -1.000000    90.000000     0.000000     0.000000    -1.000000     0.000000     0.000000     0.000000
    5     1.000000   180.000000     0.000000     0.000000     1.000000     0.000000     0.000000     0.000000
    6    -1.000000   180.000000     0.000000     0.000000     1.000000     0.000000     0.000000     0.000000
    7     1.000000    90.000000     0.000000     0.000000     1.000000     0.000000     0.000000     0.000000
    8    -1.000000    90.000000     0.000000     0.000000     1.000000     0.000000     0.000000     0.000000
    9     1.000000   180.000000     0.000000     1.000000     0.000000     0.000000     0.000000     0.000000
   10    -1.000000   180.000000     0.000000     1.000000     0.000000     0.000000     0.000000     0.000000
   11     1.000000   180.000000     0.707107     0.707107     0.000000     0.000000     0.000000     0.000000
   12    -1.000000   180.000000     0.707107     0.707107     0.000000     0.000000     0.000000     0.000000
   13     1.000000   180.000000     1.000000     0.000000     0.000000     0.000000     0.000000     0.000000
   14    -1.000000   180.000000     1.000000     0.000000     0.000000     0.000000     0.000000     0.000000
   15     1.000000   180.000000     0.707107    -0.707107     0.000000     0.000000     0.000000     0.000000
   16    -1.000000   180.000000     0.707107    -0.707107     0.000000     0.000000     0.000000     0.000000
 
 Subroutine IBZKPT returns following result:
 ===========================================
 
 Found     40 irreducible k-points:
 
 Following reciprocal coordinates:
            Coordinates               Weight
  0.062500  0.062500  0.062500      8.000000
  0.187500  0.062500  0.062500     16.000000
  0.312500  0.062500  0.062500     16.000000
  0.437500  0.062500  0.062500     16.000000
  0.187500  0.187500  0.062500      8.000000
  0.312500  0.187500  0.062500     16.000000
  0.437500  0.187500  0.062500     16.000000
  0.312500  0.312500  0.062500      8.000000
  0.437500  0.312500  0.062500     16.000000
  0.437500  0.437500  0.062500      8.000000
  0.062500  0.062500  0.187500      8.000000
  0.187500  0.062500  0.187500     16.000000
  0.312500  0.062500  0.187500     16.000000
  0.437500  0.062500  0.187500     16.000000
  0.187500  0.187500  0.187500      8.000000
  0.312500  0.187500  0.187500     16.000000
  0.437500  0.187500  0.187500     16.000000
  0.312500  0.312500  0.187500      8.000000
  0.437500  0.312500  0.187500     16.000000
  0.437500  0.437500  0.187500      8.000000
  0.062500  0.062500  0.312500      8.000000
  0.187500  0.062500  0.312500     16.000000
  0.312500  0.062500  0.312500     16.000000
  0.437500  0.062500  0.312500     16.000000
  0.187500  0.187500  0.312500      8.000000
  0.312500  0.187500  0.312500     16.000000
  0.437500  0.187500  0.312500     16.000000
  0.312500  0.312500  0.312500      8.000000
  0.437500  0.312500  0.312500     16.000000
  0.437500  0.437500  0.312500      8.000000
  0.062500  0.062500  0.437500      8.000000
  0.187500  0.062500  0.437500     16.000000
  0.312500  0.062500  0.437500     16.000000
  0.437500  0.062500  0.437500     16.000000
  0.187500  0.187500  0.437500      8.000000
  0.312500  0.187500  0.437500     16.000000
  0.437500  0.187500  0.437500     16.000000
  0.312500  0.312500  0.437500      8.000000
  0.437500  0.312500  0.437500     16.000000
  0.437500  0.437500  0.437500      8.000000
 
 Following cartesian coordinates:
            Coordinates               Weight
  0.062916  0.062916  0.062929      8.000000
  0.188748  0.062916  0.062929     16.000000
  0.314581  0.062916  0.062929     16.000000
  0.440413  0.062916  0.062929     16.000000
  0.188748  0.188748  0.062929      8.000000
  0.314581  0.188748  0.062929     16.000000
  0.440413  0.188748  0.062929     16.000000
  0.314581  0.314581  0.062929      8.000000
  0.440413  0.314581  0.062929     16.000000
  0.440413  0.440413  0.062929      8.000000
  0.062916  0.062916  0.188788      8.000000
  0.188748  0.062916  0.188788     16.000000
  0.314581  0.062916  0.188788     16.000000
  0.440413  0.062916  0.188788     16.000000
  0.188748  0.188748  0.188788      8.000000
  0.314581  0.188748  0.188788     16.000000
  0.440413  0.188748  0.188788     16.000000
  0.314581  0.314581  0.188788      8.000000
  0.440413  0.314581  0.188788     16.000000
  0.440413  0.440413  0.188788      8.000000
  0.062916  0.062916  0.314647      8.000000
  0.188748  0.062916  0.314647     16.000000
  0.314581  0.062916  0.314647     16.000000
  0.440413  0.062916  0.314647     16.000000
  0.188748  0.188748  0.314647      8.000000
  0.314581  0.188748  0.314647     16.000000
  0.440413  0.188748  0.314647     16.000000
  0.314581  0.314581  0.314647      8.000000
  0.440413  0.314581  0.314647     16.000000
  0.440413  0.440413  0.314647      8.000000
  0.062916  0.062916  0.440506      8.000000
  0.188748  0.062916  0.440506     16.000000
  0.314581  0.062916  0.440506     16.000000
  0.440413  0.062916  0.440506     16.000000
  0.188748  0.188748  0.440506      8.000000
  0.314581  0.188748  0.440506     16.000000
  0.440413  0.188748  0.440506     16.000000
  0.314581  0.314581  0.440506      8.000000
  0.440413  0.314581  0.440506     16.000000
  0.440413  0.440413  0.440506      8.000000
 


--------------------------------------------------------------------------------------------------------




 Dimension of arrays:
   k-points           NKPTS =     40   k-points in BZ     NKDIM =     40   number of bands    NBANDS=    128
   number of dos      NEDOS =   1500   number of ions     NIONS =     16
   non local maximal  LDIM  =      6   non local SUM 2l+1 LMDIM =     18
   total plane-waves  NPLWV = 110592
   max r-space proj   IRMAX =   9803   max aug-charges    IRDMAX= 392547
   dimension x,y,z NGX =    48 NGY =   48 NGZ =   48
   dimension x,y,z NGXF=    96 NGYF=   96 NGZF=   96
   support grid    NGXF=   192 NGYF=  192 NGZF=  192
   ions per type =               8   4   4
   NGX,Y,Z   is equivalent  to a cutoff of  13.28, 13.28, 13.28 a.u.
   NGXF,Y,Z  is equivalent  to a cutoff of  26.56, 26.56, 26.56 a.u.

 SYSTEM =  NiCoMnGa                                
 POSCAR =  Heusler tetragonGa                      

 Startparameter for this run:
   NWRITE =      2    write-flag & timer
   PREC   = accura    normal or accurate (medium, high low for compatibility)
   ISTART =      0    job   : 0-new  1-cont  2-samecut
   ICHARG =      2    charge: 1-file 2-atom 10-const
   ISPIN  =      2    spin polarized calculation?
   LNONCOLLINEAR =      F non collinear calculations
   LSORBIT =      F    spin-orbit coupling
   INIWAV =      1    electr: 0-lowe 1-rand  2-diag
   LASPH  =      F    aspherical Exc in radial PAW
   METAGGA=      F    non-selfconsistent MetaGGA calc.

 Electronic Relaxation 1
   ENCUT  =  500.0 eV  36.75 Ry    6.06 a.u.  10.96 10.96 10.96*2*pi/ulx,y,z
   ENINI  =  500.0     initial cutoff
   ENAUG  =  578.3 eV  augmentation charge cutoff
   NELM   =    160;   NELMIN=  2; NELMDL= -6     # of ELM steps 
   EDIFF  = 0.1E-05   stopping-criterion for ELM
   LREAL  =      T    real-space projection
   NLSPLINE    = F    spline interpolate recip. space projectors
   LCOMPAT=      F    compatible to vasp.4.4
   GGA_COMPAT  = T    GGA compatible to vasp.4.4-vasp.4.6
   LMAXPAW     = -100 max onsite density
   LMAXMIX     =    6 max onsite mixed and CHGCAR
   VOSKOWN=      0    Vosko Wilk Nusair interpolation
   ROPT   =   -0.00025  -0.00025  -0.00025
 Ionic relaxation
   EDIFFG = -.1E-02   stopping-criterion for IOM
   NSW    =      0    number of steps for IOM
   NBLOCK =      1;   KBLOCK =      1    inner block; outer block 
   IBRION =     -1    ionic relax: 0-MD 1-quasi-New 2-CG
   NFREE  =      1    steps in history (QN), initial steepest desc. (CG)
   ISIF   =      3    stress and relaxation
   IWAVPR =     10    prediction:  0-non 1-charg 2-wave 3-comb
   ISYM   =      2    0-nonsym 1-usesym 2-fastsym
   LCORR  =      T    Harris-Foulkes like correction to forces

   POTIM  = 0.0100    time-step for ionic-motion
   TEIN   =    0.0    initial temperature
   TEBEG  =    0.0;   TEEND  =   0.0 temperature during run
   SMASS  =  -3.00    Nose mass-parameter (am)
   estimated Nose-frequenzy (Omega)   =  0.10E-29 period in steps = 0.63E+48 mass=  -0.825E-27a.u.
   SCALEE = 1.0000    scale energy and forces
   NPACO  =    256;   APACO  = 16.0  distance and # of slots for P.C.
   PSTRESS=    0.0 pullay stress

  Mass of Ions in am
   POMASS =  55.85 58.93118.71
  Ionic Valenz
   ZVAL   =  14.00 15.00  4.00
  Atomic Wigner-Seitz radii
   RWIGS  =   1.16  1.16  1.16
  virtual crystal weights 
   VCA    =   1.00  1.00  1.00
   NELECT =     188.0000    total number of electrons
   NUPDOWN=      -1.0000    fix difference up-down

 DOS related values:
   EMIN   =  10.00;   EMAX   =-10.00  energy-range for DOS
   EFERMI =   0.00
   ISMEAR =     1;   SIGMA  =   0.10  broadening in eV -4-tet -1-fermi 0-gaus

 Electronic relaxation 2 (details)
   IALGO  =     38    algorithm
   LDIAG  =      T    sub-space diagonalisation (order eigenvalues)
   LSUBROT=      F    optimize rotation matrix (better conditioning)
   TURBO    =      0    0=normal 1=particle mesh
   IRESTART =      0    0=no restart 2=restart with 2 vectors
   NREBOOT  =      0    no. of reboots
   NMIN     =      0    reboot dimension
   EREF     =   0.00    reference energy to select bands
   IMIX   =      4    mixing-type and parameters
     AMIX     =   0.18;   BMIX     =  0.00
     AMIX_MAG =   0.26;   BMIX_MAG =  0.01
     AMIN     =   0.10
     WC   =   100.;   INIMIX=   1;  MIXPRE=   1;  MAXMIX= -45

 Intra band minimization:
   WEIMIN = 0.0000     energy-eigenvalue tresh-hold
   EBREAK =  0.20E-08  absolut break condition
   DEPER  =   0.30     relativ break condition  

   TIME   =   0.40     timestep for ELM

  volume/ion in A,a.u.               =      13.56        91.54
  Fermi-wavevector in a.u.,A,eV,Ry     =   1.560575  2.949059 33.135556  2.435395
  Thomas-Fermi vector in A             =   2.663767
 
 Write flags
   LWAVE        =      F    write WAVECAR
   LDOWNSAMPLE  =      F    k-point downsampling of WAVECAR
   LCHARG       =      T    write CHGCAR
   LVTOT        =      F    write LOCPOT, total local potential
   LVHAR        =      F    write LOCPOT, Hartree potential only
   LELF         =      F    write electronic localiz. function (ELF)
   LORBIT       =     10    0 simple, 1 ext, 2 COOP (PROOUT), +10 PAW based schemes


 Dipole corrections
   LMONO  =      F    monopole corrections only (constant potential shift)
   LDIPOL =      F    correct potential (dipole corrections)
   IDIPOL =      0    1-x, 2-y, 3-z, 4-all directions 
   EPSILON=  1.0000000 bulk dielectric constant

 Exchange correlation treatment:
   GGA     =    --    GGA type
   LEXCH   =     8    internal setting for exchange type
   VOSKOWN=      0    Vosko Wilk Nusair interpolation
   LHFCALC =     F    Hartree Fock is set to
   LHFONE  =     F    Hartree Fock one center treatment
   AEXX    =    0.0000 exact exchange contribution

 Linear response parameters
   LEPSILON=     F    determine dielectric tensor
   LRPA    =     F    only Hartree local field effects (RPA)
   LNABLA  =     F    use nabla operator in PAW spheres
   LVEL    =     F    velocity operator in full k-point grid
   LINTERFAST=   F  fast interpolation
   KINTER  =     0    interpolate to denser k-point grid
   CSHIFT  =0.1000    complex shift for real part using Kramers Kronig
   OMEGAMAX=  -1.0    maximum frequency
   DEG_THRESHOLD= 0.2000000E-02 threshold for treating states as degnerate
   RTIME   =   -0.100 relaxation time in fs
  (WPLASMAI=    0.000 imaginary part of plasma frequency in eV, 0.658/RTIME)
   DFIELD  = 0.0000000 0.0000000 0.0000000 field for delta impulse in time
 
 Orbital magnetization related:
   ORBITALMAG=     F  switch on orbital magnetization
   LCHIMAG   =     F  perturbation theory with respect to B field
   DQ        =  0.001000  dq finite difference perturbation B field
   LLRAUG    =     F  two centre corrections for induced B field



--------------------------------------------------------------------------------------------------------


 Static calculation
 charge density and potential will be updated during run
 spin polarized calculation
 Variant of blocked Davidson
 Davidson routine will perform the subspace rotation
 perform sub-space diagonalisation
    after iterative eigenvector-optimisation
 modified Broyden-mixing scheme, WC =      100.0
 initial mixing is a Kerker type mixing with AMIX =  0.1800 and BMIX =      0.0025
 Hartree-type preconditioning will be used
 using additional bands           34
 real space projection scheme for non local part
 use partial core corrections
 calculate Harris-corrections to forces 
   (improved forces if not selfconsistent)
 use gradient corrections 
 use of overlap-Matrix (Vanderbilt PP)
 Methfessel and Paxton  Order N= 1 SIGMA  =   0.10


--------------------------------------------------------------------------------------------------------


  energy-cutoff  :      500.00
  volume of cell :      217.03
      direct lattice vectors                 reciprocal lattice vectors
     6.009986252  0.000000000  0.000000000     0.166389732  0.000000000  0.000000000
     0.000000000  6.009986252  0.000000000     0.000000000  0.166389732  0.000000000
     0.000000000  0.000000000  6.008711689     0.000000000  0.000000000  0.166425026

  length of vectors
     6.009986252  6.009986252  6.008711689     0.166389732  0.166389732  0.166425026


 
 k-points in units of 2pi/SCALE and weight: Ni7CoMn5CrSn2                           
   0.06291612  0.06291612  0.06292946       0.016
   0.18874835  0.06291612  0.06292946       0.031
   0.31458059  0.06291612  0.06292946       0.031
   0.44041282  0.06291612  0.06292946       0.031
   0.18874835  0.18874835  0.06292946       0.016
   0.31458059  0.18874835  0.06292946       0.031
   0.44041282  0.18874835  0.06292946       0.031
   0.31458059  0.31458059  0.06292946       0.016
   0.44041282  0.31458059  0.06292946       0.031
   0.44041282  0.44041282  0.06292946       0.016
   0.06291612  0.06291612  0.18878839       0.016
   0.18874835  0.06291612  0.18878839       0.031
   0.31458059  0.06291612  0.18878839       0.031
   0.44041282  0.06291612  0.18878839       0.031
   0.18874835  0.18874835  0.18878839       0.016
   0.31458059  0.18874835  0.18878839       0.031
   0.44041282  0.18874835  0.18878839       0.031
   0.31458059  0.31458059  0.18878839       0.016
   0.44041282  0.31458059  0.18878839       0.031
   0.44041282  0.44041282  0.18878839       0.016
   0.06291612  0.06291612  0.31464732       0.016
   0.18874835  0.06291612  0.31464732       0.031
   0.31458059  0.06291612  0.31464732       0.031
   0.44041282  0.06291612  0.31464732       0.031
   0.18874835  0.18874835  0.31464732       0.016
   0.31458059  0.18874835  0.31464732       0.031
   0.44041282  0.18874835  0.31464732       0.031
   0.31458059  0.31458059  0.31464732       0.016
   0.44041282  0.31458059  0.31464732       0.031
   0.44041282  0.44041282  0.31464732       0.016
   0.06291612  0.06291612  0.44050624       0.016
   0.18874835  0.06291612  0.44050624       0.031
   0.31458059  0.06291612  0.44050624       0.031
   0.44041282  0.06291612  0.44050624       0.031
   0.18874835  0.18874835  0.44050624       0.016
   0.31458059  0.18874835  0.44050624       0.031
   0.44041282  0.18874835  0.44050624       0.031
   0.31458059  0.31458059  0.44050624       0.016
   0.44041282  0.31458059  0.44050624       0.031
   0.44041282  0.44041282  0.44050624       0.016
 
 k-points in reciprocal lattice and weights: Ni7CoMn5CrSn2                           
   0.06250000  0.06250000  0.06250000       0.016
   0.18750000  0.06250000  0.06250000       0.031
   0.31250000  0.06250000  0.06250000       0.031
   0.43750000  0.06250000  0.06250000       0.031
   0.18750000  0.18750000  0.06250000       0.016
   0.31250000  0.18750000  0.06250000       0.031
   0.43750000  0.18750000  0.06250000       0.031
   0.31250000  0.31250000  0.06250000       0.016
   0.43750000  0.31250000  0.06250000       0.031
   0.43750000  0.43750000  0.06250000       0.016
   0.06250000  0.06250000  0.18750000       0.016
   0.18750000  0.06250000  0.18750000       0.031
   0.31250000  0.06250000  0.18750000       0.031
   0.43750000  0.06250000  0.18750000       0.031
   0.18750000  0.18750000  0.18750000       0.016
   0.31250000  0.18750000  0.18750000       0.031
   0.43750000  0.18750000  0.18750000       0.031
   0.31250000  0.31250000  0.18750000       0.016
   0.43750000  0.31250000  0.18750000       0.031
   0.43750000  0.43750000  0.18750000       0.016
   0.06250000  0.06250000  0.31250000       0.016
   0.18750000  0.06250000  0.31250000       0.031
   0.31250000  0.06250000  0.31250000       0.031
   0.43750000  0.06250000  0.31250000       0.031
   0.18750000  0.18750000  0.31250000       0.016
   0.31250000  0.18750000  0.31250000       0.031
   0.43750000  0.18750000  0.31250000       0.031
   0.31250000  0.31250000  0.31250000       0.016
   0.43750000  0.31250000  0.31250000       0.031
   0.43750000  0.43750000  0.31250000       0.016
   0.06250000  0.06250000  0.43750000       0.016
   0.18750000  0.06250000  0.43750000       0.031
   0.31250000  0.06250000  0.43750000       0.031
   0.43750000  0.06250000  0.43750000       0.031
   0.18750000  0.18750000  0.43750000       0.016
   0.31250000  0.18750000  0.43750000       0.031
   0.43750000  0.18750000  0.43750000       0.031
   0.31250000  0.31250000  0.43750000       0.016
   0.43750000  0.31250000  0.43750000       0.031
   0.43750000  0.43750000  0.43750000       0.016
 
 position of ions in fractional coordinates (direct lattice) 
   0.25000000  0.25000000  0.25000000
   0.25000000  0.75000000  0.25000000
   0.75000000  0.25000000  0.25000000
   0.75000000  0.75000000  0.25000000
   0.25000000  0.25000000  0.75000000
   0.75000000  0.25000000  0.75000000
   0.25000000  0.75000000  0.75000000
   0.75000000  0.75000000  0.75000000
   0.50000000  0.00000000  0.00000000
   0.00000000  0.50000000  0.00000000
   0.00000000  0.00000000  0.50000000
   0.50000000  0.50000000  0.50000000
   0.50000000  0.00000000  0.50000000
   0.00000000  0.50000000  0.50000000
   0.50000000  0.50000000  0.00000000
   0.00000000  0.00000000  0.00000000
 
 position of ions in cartesian coordinates  (Angst):
   1.50249656  1.50249656  1.50217792
   1.50249656  4.50748969  1.50217792
   4.50748969  1.50249656  1.50217792
   4.50748969  4.50748969  1.50217792
   1.50249656  1.50249656  4.50653377
   4.50748969  1.50249656  4.50653377
   1.50249656  4.50748969  4.50653377
   4.50748969  4.50748969  4.50653377
   3.00499313  0.00000000  0.00000000
   0.00000000  3.00499313  0.00000000
   0.00000000  0.00000000  3.00435584
   3.00499313  3.00499313  3.00435584
   3.00499313  0.00000000  3.00435584
   0.00000000  3.00499313  3.00435584
   3.00499313  3.00499313  0.00000000
   0.00000000  0.00000000  0.00000000
 


--------------------------------------------------------------------------------------------------------


 k-point   1 :   0.0625 0.0625 0.0625  plane waves:    5503
 k-point   2 :   0.1875 0.0625 0.0625  plane waves:    5500
 k-point   3 :   0.3125 0.0625 0.0625  plane waves:    5510
 k-point   4 :   0.4375 0.0625 0.0625  plane waves:    5501
 k-point   5 :   0.1875 0.1875 0.0625  plane waves:    5499
 k-point   6 :   0.3125 0.1875 0.0625  plane waves:    5498
 k-point   7 :   0.4375 0.1875 0.0625  plane waves:    5501
 k-point   8 :   0.3125 0.3125 0.0625  plane waves:    5498
 k-point   9 :   0.4375 0.3125 0.0625  plane waves:    5500
 k-point  10 :   0.4375 0.4375 0.0625  plane waves:    5502
 k-point  11 :   0.0625 0.0625 0.1875  plane waves:    5507
 k-point  12 :   0.1875 0.0625 0.1875  plane waves:    5499
 k-point  13 :   0.3125 0.0625 0.1875  plane waves:    5498
 k-point  14 :   0.4375 0.0625 0.1875  plane waves:    5501
 k-point  15 :   0.1875 0.1875 0.1875  plane waves:    5509
 k-point  16 :   0.3125 0.1875 0.1875  plane waves:    5511
 k-point  17 :   0.4375 0.1875 0.1875  plane waves:    5520
 k-point  18 :   0.3125 0.3125 0.1875  plane waves:    5509
 k-point  19 :   0.4375 0.3125 0.1875  plane waves:    5518
 k-point  20 :   0.4375 0.4375 0.1875  plane waves:    5532
 k-point  21 :   0.0625 0.0625 0.3125  plane waves:    5510
 k-point  22 :   0.1875 0.0625 0.3125  plane waves:    5498
 k-point  23 :   0.3125 0.0625 0.3125  plane waves:    5498
 k-point  24 :   0.4375 0.0625 0.3125  plane waves:    5504
 k-point  25 :   0.1875 0.1875 0.3125  plane waves:    5513
 k-point  26 :   0.3125 0.1875 0.3125  plane waves:    5509
 k-point  27 :   0.4375 0.1875 0.3125  plane waves:    5518
 k-point  28 :   0.3125 0.3125 0.3125  plane waves:    5527
 k-point  29 :   0.4375 0.3125 0.3125  plane waves:    5533
 k-point  30 :   0.4375 0.4375 0.3125  plane waves:    5534
 k-point  31 :   0.0625 0.0625 0.4375  plane waves:    5501
 k-point  32 :   0.1875 0.0625 0.4375  plane waves:    5501
 k-point  33 :   0.3125 0.0625 0.4375  plane waves:    5502
 k-point  34 :   0.4375 0.0625 0.4375  plane waves:    5502
 k-point  35 :   0.1875 0.1875 0.4375  plane waves:    5520
 k-point  36 :   0.3125 0.1875 0.4375  plane waves:    5518
 k-point  37 :   0.4375 0.1875 0.4375  plane waves:    5527
 k-point  38 :   0.3125 0.3125 0.4375  plane waves:    5533
 k-point  39 :   0.4375 0.3125 0.4375  plane waves:    5534
 k-point  40 :   0.4375 0.4375 0.4375  plane waves:    5520

 maximum and minimum number of plane-waves per node :       580      522

 maximum number of plane-waves:      5534
 maximum index in each direction: 
   IXMAX=   10   IYMAX=   10   IZMAX=   10
   IXMIN=  -11   IYMIN=  -11   IZMIN=  -11


 real space projection operators:
  total allocation   :      15012.28 KBytes
  max/ min on nodes  :       1559.00       1327.44


 parallel 3D FFT for wavefunctions:
    minimum data exchange during FFTs selected (reduces bandwidth)
 parallel 3D FFT for charge:
    minimum data exchange during FFTs selected (reduces bandwidth)


 total amount of memory used by VASP MPI-rank0    54790. kBytes
=======================================================================

   base      :      30000. kBytes
   nonlr-proj:       4575. kBytes
   fftplans  :       4343. kBytes
   grid      :       3686. kBytes
   one-center:         62. kBytes
   wavefun   :      12124. kBytes
 
     INWAV:  cpu time    0.0000: real time    0.0000
 Broyden mixing: mesh for mixing (old mesh)
   NGX = 21   NGY = 21   NGZ = 21
  (NGX  = 96   NGY  = 96   NGZ  = 96)
  gives a total of   9261 points

 initial charge density was supplied:
 charge density of overlapping atoms calculated
 number of electron     188.0000000 magnetization      23.2000000
 keeping initial charge density in first step


--------------------------------------------------------------------------------------------------------


 Maximum index for non-local projection operator         1111
 Maximum index for augmentation-charges         9482 (set IRDMAX)


--------------------------------------------------------------------------------------------------------


 First call to EWALD:  gamma=   0.295
 Maximum number of real-space cells 3x 3x 3
 Maximum number of reciprocal cells 3x 3x 3

    FEWALD:  cpu time    0.0000: real time    0.0015


--------------------------------------- Iteration      1(   1)  ---------------------------------------


    POTLOK:  cpu time    0.1360: real time    0.1844
    SETDIJ:  cpu time    0.3000: real time    0.3013
     EDDAV:  cpu time   11.7967: real time   11.8343
       DOS:  cpu time    0.0040: real time    0.0064
    --------------------------------------------
      LOOP:  cpu time   12.2368: real time   12.3265

 eigenvalue-minimisations  : 20736
 total energy-change (2. order) : 0.2632549E+04  (-0.9388722E+04)
 number of electron     188.0000000 magnetization      23.2000000
 augmentation part      188.0000000 magnetization      23.2000000

 Free energy of the ion-electron system (eV)
  ---------------------------------------------------
  alpha Z        PSCENC =      1093.71446075
  Ewald energy   TEWEN  =    -20671.17474946
  -Hartree energ DENC   =     -9594.92775413
  -exchange      EXHF   =         0.00000000
  -V(xc)+E(xc)   XCENC  =       466.69529997
  PAW double counting   =     26140.62212847   -27156.40297129
  entropy T*S    EENTRO =         0.00188086
  eigenvalues    EBANDS =       525.83100077
  atomic energy  EATOM  =     31828.18944640
  Solvation  Ediel_sol  =         0.00000000
  ---------------------------------------------------
  free energy    TOTEN  =      2632.54874234 eV

  energy without entropy =     2632.54686148  energy(sigma->0) =     2632.54811539


--------------------------------------------------------------------------------------------------------




--------------------------------------- Iteration      1(   2)  ---------------------------------------


     EDDAV:  cpu time   11.6567: real time   11.6925
       DOS:  cpu time    0.0080: real time    0.0075
    --------------------------------------------
      LOOP:  cpu time   11.6647: real time   11.7001

 eigenvalue-minimisations  : 20480
 total energy-change (2. order) :-0.2399780E+04  (-0.2300194E+04)
 number of electron     188.0000000 magnetization      23.2000000
 augmentation part      188.0000000 magnetization      23.2000000

 Free energy of the ion-electron system (eV)
  ---------------------------------------------------
  alpha Z        PSCENC =      1093.71446075
  Ewald energy   TEWEN  =    -20671.17474946
  -Hartree energ DENC   =     -9594.92775413
  -exchange      EXHF   =         0.00000000
  -V(xc)+E(xc)   XCENC  =       466.69529997
  PAW double counting   =     26140.62212847   -27156.40297129
  entropy T*S    EENTRO =         0.00025449
  eigenvalues    EBANDS =     -1873.94745616
  atomic energy  EATOM  =     31828.18944640
  Solvation  Ediel_sol  =         0.00000000
  ---------------------------------------------------
  free energy    TOTEN  =       232.76865904 eV

  energy without entropy =      232.76840455  energy(sigma->0) =      232.76857421


--------------------------------------------------------------------------------------------------------




--------------------------------------- Iteration      1(   3)  ---------------------------------------


     EDDAV:  cpu time   11.8567: real time   11.8918
       DOS:  cpu time    0.0080: real time    0.0079
    --------------------------------------------
      LOOP:  cpu time   11.8647: real time   11.8996

 eigenvalue-minimisations  : 21008
 total energy-change (2. order) :-0.3306963E+03  (-0.2899021E+03)
 number of electron     188.0000000 magnetization      23.2000000
 augmentation part      188.0000000 magnetization      23.2000000

 Free energy of the ion-electron system (eV)
  ---------------------------------------------------
  alpha Z        PSCENC =      1093.71446075
  Ewald energy   TEWEN  =    -20671.17474946
  -Hartree energ DENC   =     -9594.92775413
  -exchange      EXHF   =         0.00000000
  -V(xc)+E(xc)   XCENC  =       466.69529997
  PAW double counting   =     26140.62212847   -27156.40297129
  entropy T*S    EENTRO =        -0.00107269
  eigenvalues    EBANDS =     -2204.64246745
  atomic energy  EATOM  =     31828.18944640
  Solvation  Ediel_sol  =         0.00000000
  ---------------------------------------------------
  free energy    TOTEN  =       -97.92767943 eV

  energy without entropy =      -97.92660674  energy(sigma->0) =      -97.92732187


--------------------------------------------------------------------------------------------------------




--------------------------------------- Iteration      1(   4)  ---------------------------------------


     EDDAV:  cpu time   12.4768: real time   12.5171
       DOS:  cpu time    0.0080: real time    0.0080
    --------------------------------------------
      LOOP:  cpu time   12.4848: real time   12.5251

 eigenvalue-minimisations  : 22496
 total energy-change (2. order) :-0.2088398E+02  (-0.2030867E+02)
 number of electron     188.0000000 magnetization      23.2000000
 augmentation part      188.0000000 magnetization      23.2000000

 Free energy of the ion-electron system (eV)
  ---------------------------------------------------
  alpha Z        PSCENC =      1093.71446075
  Ewald energy   TEWEN  =    -20671.17474946
  -Hartree energ DENC   =     -9594.92775413
  -exchange      EXHF   =         0.00000000
  -V(xc)+E(xc)   XCENC  =       466.69529997
  PAW double counting   =     26140.62212847   -27156.40297129
  entropy T*S    EENTRO =        -0.00330393
  eigenvalues    EBANDS =     -2225.52421338
  atomic energy  EATOM  =     31828.18944640
  Solvation  Ediel_sol  =         0.00000000
  ---------------------------------------------------
  free energy    TOTEN  =      -118.81165659 eV

  energy without entropy =     -118.80835267  energy(sigma->0) =     -118.81055529


--------------------------------------------------------------------------------------------------------




--------------------------------------- Iteration      1(   5)  ---------------------------------------


     EDDAV:  cpu time   12.3448: real time   12.3829
       DOS:  cpu time    0.0080: real time    0.0078
    --------------------------------------------
      LOOP:  cpu time   12.3528: real time   12.3907

 eigenvalue-minimisations  : 22192
 total energy-change (2. order) :-0.3650661E+00  (-0.3642871E+00)
 number of electron     188.0000000 magnetization      23.2000000
 augmentation part      188.0000000 magnetization      23.2000000

 Free energy of the ion-electron system (eV)
  ---------------------------------------------------
  alpha Z        PSCENC =      1093.71446075
  Ewald energy   TEWEN  =    -20671.17474946
  -Hartree energ DENC   =     -9594.92775413
  -exchange      EXHF   =         0.00000000
  -V(xc)+E(xc)   XCENC  =       466.69529997
  PAW double counting   =     26140.62212847   -27156.40297129
  entropy T*S    EENTRO =        -0.00324733
  eigenvalues    EBANDS =     -2225.88933611
  atomic energy  EATOM  =     31828.18944640
  Solvation  Ediel_sol  =         0.00000000
  ---------------------------------------------------
  free energy    TOTEN  =      -119.17672272 eV

  energy without entropy =     -119.17347539  energy(sigma->0) =     -119.17564027


--------------------------------------------------------------------------------------------------------




--------------------------------------- Iteration      1(   6)  ---------------------------------------


     EDDAV:  cpu time   12.2968: real time   12.3370
       DOS:  cpu time    0.0080: real time    0.0081
    CHARGE:  cpu time    0.5280: real time    0.5291
    MIXING:  cpu time    0.0040: real time    0.0025
    --------------------------------------------
      LOOP:  cpu time   12.8368: real time   12.8768

 eigenvalue-minimisations  : 22104
 total energy-change (2. order) :-0.9876816E-02  (-0.9876400E-02)
 number of electron     188.0000012 magnetization      23.1150867
 augmentation part       95.9322042 magnetization      17.2922642

 Broyden mixing:
  rms(total) = 0.36718E+01    rms(broyden)= 0.36711E+01
  rms(prec ) = 0.54557E+01
  weight for this iteration     100.00

 Free energy of the ion-electron system (eV)
  ---------------------------------------------------
  alpha Z        PSCENC =      1093.71446075
  Ewald energy   TEWEN  =    -20671.17474946
  -Hartree energ DENC   =     -9594.92775413
  -exchange      EXHF   =         0.00000000
  -V(xc)+E(xc)   XCENC  =       466.69529997
  PAW double counting   =     26140.62212847   -27156.40297129
  entropy T*S    EENTRO =        -0.00324456
  eigenvalues    EBANDS =     -2225.89921569
  atomic energy  EATOM  =     31828.18944640
  Solvation  Ediel_sol  =         0.00000000
  ---------------------------------------------------
  free energy    TOTEN  =      -119.18659953 eV

  energy without entropy =     -119.18335497  energy(sigma->0) =     -119.18551801


--------------------------------------------------------------------------------------------------------




--------------------------------------- Iteration      1(   7)  ---------------------------------------


    POTLOK:  cpu time    0.0760: real time    0.0773
    SETDIJ:  cpu time    0.2440: real time    0.2434
     EDDAV:  cpu time   12.3368: real time   12.3786
       DOS:  cpu time    0.0080: real time    0.0078
    CHARGE:  cpu time    0.5160: real time    0.5174
    MIXING:  cpu time    0.0040: real time    0.0031
    --------------------------------------------
      LOOP:  cpu time   13.1848: real time   13.2277

 eigenvalue-minimisations  : 22072
 total energy-change (2. order) : 0.9682822E+01  (-0.4408054E+01)
 number of electron     188.0000013 magnetization      22.8148865
 augmentation part      103.0402049 magnetization      17.6410080

 Broyden mixing:
  rms(total) = 0.29712E+01    rms(broyden)= 0.29702E+01
  rms(prec ) = 0.49905E+01
  weight for this iteration     100.00

 eigenvalues of (default mixing * dielectric matrix)
  average eigenvalue GAMMA=   0.6081
  0.6081

 Free energy of the ion-electron system (eV)
  ---------------------------------------------------
  alpha Z        PSCENC =      1093.71446075
  Ewald energy   TEWEN  =    -20671.17474946
  -Hartree energ DENC   =     -9308.81008043
  -exchange      EXHF   =         0.00000000
  -V(xc)+E(xc)   XCENC  =       455.88794949
  PAW double counting   =     26307.90604076   -27294.28070173
  entropy T*S    EENTRO =         0.00001153
  eigenvalues    EBANDS =     -2520.93615442
  atomic energy  EATOM  =     31828.18944640
  Solvation  Ediel_sol  =         0.00000000
  ---------------------------------------------------
  free energy    TOTEN  =      -109.50377711 eV

  energy without entropy =     -109.50378864  energy(sigma->0) =     -109.50378095


--------------------------------------------------------------------------------------------------------




--------------------------------------- Iteration      1(   8)  ---------------------------------------


    POTLOK:  cpu time    0.0760: real time    0.0767
    SETDIJ:  cpu time    0.2400: real time    0.2433
     EDDAV:  cpu time   12.1968: real time   12.2355
       DOS:  cpu time    0.0080: real time    0.0079
    CHARGE:  cpu time    0.5240: real time    0.5230
    MIXING:  cpu time    0.0040: real time    0.0039
    --------------------------------------------
      LOOP:  cpu time   13.0488: real time   13.0904

 eigenvalue-minimisations  : 21856
 total energy-change (2. order) :-0.5130635E+01  (-0.2804630E+01)
 number of electron     188.0000012 magnetization      22.3256414
 augmentation part      102.2905083 magnetization      18.0790619

 Broyden mixing:
  rms(total) = 0.49995E+01    rms(broyden)= 0.49980E+01
  rms(prec ) = 0.85391E+01
  weight for this iteration     100.00

 eigenvalues of (default mixing * dielectric matrix)
  average eigenvalue GAMMA=   0.7142
  1.2352  0.1931

 Free energy of the ion-electron system (eV)
  ---------------------------------------------------
  alpha Z        PSCENC =      1093.71446075
  Ewald energy   TEWEN  =    -20671.17474946
  -Hartree energ DENC   =     -9304.32680587
  -exchange      EXHF   =         0.00000000
  -V(xc)+E(xc)   XCENC  =       455.64723648
  PAW double counting   =     26541.36064306   -27536.67400562
  entropy T*S    EENTRO =         0.00393233
  eigenvalues    EBANDS =     -2521.37457048
  atomic energy  EATOM  =     31828.18944640
  Solvation  Ediel_sol  =         0.00000000
  ---------------------------------------------------
  free energy    TOTEN  =      -114.63441241 eV

  energy without entropy =     -114.63834474  energy(sigma->0) =     -114.63572319


--------------------------------------------------------------------------------------------------------




--------------------------------------- Iteration      1(   9)  ---------------------------------------


    POTLOK:  cpu time    0.0760: real time    0.0770
    SETDIJ:  cpu time    0.2440: real time    0.2446
     EDDAV:  cpu time   12.3008: real time   12.3421
       DOS:  cpu time    0.0080: real time    0.0079
    CHARGE:  cpu time    0.5160: real time    0.5180
    MIXING:  cpu time    0.0040: real time    0.0035
    --------------------------------------------
      LOOP:  cpu time   13.1488: real time   13.1931

 eigenvalue-minimisations  : 22080
 total energy-change (2. order) : 0.8035002E+01  (-0.9774163E+00)
 number of electron     188.0000013 magnetization      22.3116530
 augmentation part      103.3038748 magnetization      17.3813473

 Broyden mixing:
  rms(total) = 0.12101E+01    rms(broyden)= 0.12095E+01
  rms(prec ) = 0.13324E+01
  weight for this iteration     100.00

 eigenvalues of (default mixing * dielectric matrix)
  average eigenvalue GAMMA=   0.7848
  1.5043  0.6471  0.2029

 Free energy of the ion-electron system (eV)
  ---------------------------------------------------
  alpha Z        PSCENC =      1093.71446075
  Ewald energy   TEWEN  =    -20671.17474946
  -Hartree energ DENC   =     -9269.63329387
  -exchange      EXHF   =         0.00000000
  -V(xc)+E(xc)   XCENC  =       454.43194058
  PAW double counting   =     26879.97445141   -27876.07419771
  entropy T*S    EENTRO =        -0.00181776
  eigenvalues    EBANDS =     -2546.02565075
  atomic energy  EATOM  =     31828.18944640
  Solvation  Ediel_sol  =         0.00000000
  ---------------------------------------------------
  free energy    TOTEN  =      -106.59941039 eV

  energy without entropy =     -106.59759263  energy(sigma->0) =     -106.59880447


--------------------------------------------------------------------------------------------------------




--------------------------------------- Iteration      1(  10)  ---------------------------------------


    POTLOK:  cpu time    0.0760: real time    0.0762
    SETDIJ:  cpu time    0.2440: real time    0.2437
     EDDAV:  cpu time   12.1008: real time   12.1400
       DOS:  cpu time    0.0080: real time    0.0079
    CHARGE:  cpu time    0.5200: real time    0.5202
    MIXING:  cpu time    0.0040: real time    0.0038
    --------------------------------------------
      LOOP:  cpu time   12.9528: real time   12.9917

 eigenvalue-minimisations  : 21600
 total energy-change (2. order) :-0.1102522E+00  (-0.6541476E-01)
 number of electron     188.0000013 magnetization      22.6774850
 augmentation part      103.2906209 magnetization      17.8438467

 Broyden mixing:
  rms(total) = 0.11368E+01    rms(broyden)= 0.11368E+01
  rms(prec ) = 0.12973E+01
  weight for this iteration     100.00

 eigenvalues of (default mixing * dielectric matrix)
  average eigenvalue GAMMA=   1.8903
  5.1810  1.0908  1.0908  0.1988

 Free energy of the ion-electron system (eV)
  ---------------------------------------------------
  alpha Z        PSCENC =      1093.71446075
  Ewald energy   TEWEN  =    -20671.17474946
  -Hartree energ DENC   =     -9259.57361804
  -exchange      EXHF   =         0.00000000
  -V(xc)+E(xc)   XCENC  =       454.32388862
  PAW double counting   =     27269.84728978   -28272.16912308
  entropy T*S    EENTRO =        -0.00165595
  eigenvalues    EBANDS =     -2549.86560158
  atomic energy  EATOM  =     31828.18944640
  Solvation  Ediel_sol  =         0.00000000
  ---------------------------------------------------
  free energy    TOTEN  =      -106.70966257 eV

  energy without entropy =     -106.70800662  energy(sigma->0) =     -106.70911059


--------------------------------------------------------------------------------------------------------




--------------------------------------- Iteration      1(  11)  ---------------------------------------


    POTLOK:  cpu time    0.0720: real time    0.0760
    SETDIJ:  cpu time    0.2440: real time    0.2445
     EDDAV:  cpu time   12.0808: real time   12.1153
       DOS:  cpu time    0.0080: real time    0.0077
    CHARGE:  cpu time    0.5200: real time    0.5251
    MIXING:  cpu time    0.0040: real time    0.0035
    --------------------------------------------
      LOOP:  cpu time   12.9288: real time   12.9722

 eigenvalue-minimisations  : 21608
 total energy-change (2. order) :-0.7360221E-01  (-0.8540429E-01)
 number of electron     188.0000013 magnetization      23.0494924
 augmentation part      103.2511235 magnetization      18.3187577

 Broyden mixing:
  rms(total) = 0.40381E+00    rms(broyden)= 0.40358E+00
  rms(prec ) = 0.51418E+00
  weight for this iteration     100.00

 eigenvalues of (default mixing * dielectric matrix)
  average eigenvalue GAMMA=   1.6485
  3.6922  2.2565  0.1988  0.9233  1.1714

 Free energy of the ion-electron system (eV)
  ---------------------------------------------------
  alpha Z        PSCENC =      1093.71446075
  Ewald energy   TEWEN  =    -20671.17474946
  -Hartree energ DENC   =     -9228.66466181
  -exchange      EXHF   =         0.00000000
  -V(xc)+E(xc)   XCENC  =       454.37383319
  PAW double counting   =     28710.36482107   -29734.61997796
  entropy T*S    EENTRO =         0.00255957
  eigenvalues    EBANDS =     -2558.96899654
  atomic energy  EATOM  =     31828.18944640
  Solvation  Ediel_sol  =         0.00000000
  ---------------------------------------------------
  free energy    TOTEN  =      -106.78326478 eV

  energy without entropy =     -106.78582435  energy(sigma->0) =     -106.78411797


--------------------------------------------------------------------------------------------------------




--------------------------------------- Iteration      1(  12)  ---------------------------------------


    POTLOK:  cpu time    0.0760: real time    0.0766
    SETDIJ:  cpu time    0.2480: real time    0.2467
     EDDAV:  cpu time   12.6928: real time   12.7340
       DOS:  cpu time    0.0080: real time    0.0079
    CHARGE:  cpu time    0.5200: real time    0.5234
    MIXING:  cpu time    0.0040: real time    0.0041
    --------------------------------------------
      LOOP:  cpu time   13.5488: real time   13.5926

 eigenvalue-minimisations  : 22936
 total energy-change (2. order) : 0.1268611E-01  (-0.9241638E-02)
 number of electron     188.0000013 magnetization      23.6562623
 augmentation part      103.3142575 magnetization      18.8989803

 Broyden mixing:
  rms(total) = 0.26331E+00    rms(broyden)= 0.26326E+00
  rms(prec ) = 0.27315E+00
  weight for this iteration     100.00

 eigenvalues of (default mixing * dielectric matrix)
  average eigenvalue GAMMA=   2.0161
  5.5177  3.2997  0.1988  1.0750  1.0750  0.9306

 Free energy of the ion-electron system (eV)
  ---------------------------------------------------
  alpha Z        PSCENC =      1093.71446075
  Ewald energy   TEWEN  =    -20671.17474946
  -Hartree energ DENC   =     -9229.36877213
  -exchange      EXHF   =         0.00000000
  -V(xc)+E(xc)   XCENC  =       454.53012593
  PAW double counting   =     28615.24989350   -29639.27516000
  entropy T*S    EENTRO =         0.00115009
  eigenvalues    EBANDS =     -2558.63697376
  atomic energy  EATOM  =     31828.18944640
  Solvation  Ediel_sol  =         0.00000000
  ---------------------------------------------------
  free energy    TOTEN  =      -106.77057867 eV

  energy without entropy =     -106.77172877  energy(sigma->0) =     -106.77096204


--------------------------------------------------------------------------------------------------------




--------------------------------------- Iteration      1(  13)  ---------------------------------------


    POTLOK:  cpu time    0.0760: real time    0.0780
    SETDIJ:  cpu time    0.2560: real time    0.2549
     EDDAV:  cpu time   12.7088: real time   12.7500
       DOS:  cpu time    0.0080: real time    0.0079
    CHARGE:  cpu time    0.5320: real time    0.5310
    MIXING:  cpu time    0.0040: real time    0.0040
    --------------------------------------------
      LOOP:  cpu time   13.5849: real time   13.6258

 eigenvalue-minimisations  : 23096
 total energy-change (2. order) :-0.2113490E-01  (-0.4772028E-02)
 number of electron     188.0000013 magnetization      23.8967212
 augmentation part      103.2192761 magnetization      19.1487434

 Broyden mixing:
  rms(total) = 0.81455E-01    rms(broyden)= 0.81332E-01
  rms(prec ) = 0.92047E-01
  weight for this iteration     100.00

 eigenvalues of (default mixing * dielectric matrix)
  average eigenvalue GAMMA=   2.1009
  6.1642  3.9833  0.1988  1.3599  1.0654  1.0654  0.8693

 Free energy of the ion-electron system (eV)
  ---------------------------------------------------
  alpha Z        PSCENC =      1093.71446075
  Ewald energy   TEWEN  =    -20671.17474946
  -Hartree energ DENC   =     -9224.42270652
  -exchange      EXHF   =         0.00000000
  -V(xc)+E(xc)   XCENC  =       454.92139228
  PAW double counting   =     28918.95044686   -29949.63628672
  entropy T*S    EENTRO =         0.00261930
  eigenvalues    EBANDS =     -2557.33633646
  atomic energy  EATOM  =     31828.18944640
  Solvation  Ediel_sol  =         0.00000000
  ---------------------------------------------------
  free energy    TOTEN  =      -106.79171357 eV

  energy without entropy =     -106.79433287  energy(sigma->0) =     -106.79258667


--------------------------------------------------------------------------------------------------------




--------------------------------------- Iteration      1(  14)  ---------------------------------------


    POTLOK:  cpu time    0.0720: real time    0.0758
    SETDIJ:  cpu time    0.2480: real time    0.2481
     EDDAV:  cpu time   12.9488: real time   12.9864
       DOS:  cpu time    0.0080: real time    0.0081
    CHARGE:  cpu time    0.5280: real time    0.5300
    MIXING:  cpu time    0.0040: real time    0.0040
    --------------------------------------------
      LOOP:  cpu time   13.8089: real time   13.8524

 eigenvalue-minimisations  : 23640
 total energy-change (2. order) :-0.2384626E-02  (-0.8967522E-03)
 number of electron     188.0000013 magnetization      23.9809748
 augmentation part      103.2796636 magnetization      19.2393973

 Broyden mixing:
  rms(total) = 0.54829E-01    rms(broyden)= 0.54825E-01
  rms(prec ) = 0.73933E-01
  weight for this iteration     100.00

 eigenvalues of (default mixing * dielectric matrix)
  average eigenvalue GAMMA=   2.3146
  6.7147  3.8084  3.8084  0.1988  1.1762  0.9927  0.9927  0.8251

 Free energy of the ion-electron system (eV)
  ---------------------------------------------------
  alpha Z        PSCENC =      1093.71446075
  Ewald energy   TEWEN  =    -20671.17474946
  -Hartree energ DENC   =     -9220.50341015
  -exchange      EXHF   =         0.00000000
  -V(xc)+E(xc)   XCENC  =       454.94059986
  PAW double counting   =     28973.93099440   -30005.74926921
  entropy T*S    EENTRO =         0.00242993
  eigenvalues    EBANDS =     -2560.14460071
  atomic energy  EATOM  =     31828.18944640
  Solvation  Ediel_sol  =         0.00000000
  ---------------------------------------------------
  free energy    TOTEN  =      -106.79409820 eV

  energy without entropy =     -106.79652812  energy(sigma->0) =     -106.79490817


--------------------------------------------------------------------------------------------------------




--------------------------------------- Iteration      1(  15)  ---------------------------------------


    POTLOK:  cpu time    0.0760: real time    0.0766
    SETDIJ:  cpu time    0.2520: real time    0.2555
     EDDAV:  cpu time   11.9447: real time   11.9797
       DOS:  cpu time    0.0080: real time    0.0082
    CHARGE:  cpu time    0.5200: real time    0.5207
    MIXING:  cpu time    0.0000: real time    0.0037
    --------------------------------------------
      LOOP:  cpu time   12.8008: real time   12.8445

 eigenvalue-minimisations  : 21264
 total energy-change (2. order) :-0.1756531E-03  (-0.2483172E-03)
 number of electron     188.0000013 magnetization      23.9912140
 augmentation part      103.2823305 magnetization      19.2428582

 Broyden mixing:
  rms(total) = 0.41227E-01    rms(broyden)= 0.41225E-01
  rms(prec ) = 0.59989E-01
  weight for this iteration     100.00

 eigenvalues of (default mixing * dielectric matrix)
  average eigenvalue GAMMA=   2.2638
  6.5907  4.2886  4.2886  0.1988  1.1784  1.0451  0.8703  0.9569  0.9569

 Free energy of the ion-electron system (eV)
  ---------------------------------------------------
  alpha Z        PSCENC =      1093.71446075
  Ewald energy   TEWEN  =    -20671.17474946
  -Hartree energ DENC   =     -9220.02781929
  -exchange      EXHF   =         0.00000000
  -V(xc)+E(xc)   XCENC  =       454.93916047
  PAW double counting   =     28974.94944115   -30006.63989998
  entropy T*S    EENTRO =         0.00248851
  eigenvalues    EBANDS =     -2560.74680239
  atomic energy  EATOM  =     31828.18944640
  Solvation  Ediel_sol  =         0.00000000
  ---------------------------------------------------
  free energy    TOTEN  =      -106.79427385 eV

  energy without entropy =     -106.79676236  energy(sigma->0) =     -106.79510335


--------------------------------------------------------------------------------------------------------




--------------------------------------- Iteration      1(  16)  ---------------------------------------


    POTLOK:  cpu time    0.0760: real time    0.0765
    SETDIJ:  cpu time    0.2480: real time    0.2484
     EDDAV:  cpu time   13.4208: real time   13.4606
       DOS:  cpu time    0.0080: real time    0.0082
    CHARGE:  cpu time    0.5200: real time    0.5207
    MIXING:  cpu time    0.0040: real time    0.0041
    --------------------------------------------
      LOOP:  cpu time   14.2769: real time   14.3185

 eigenvalue-minimisations  : 24608
 total energy-change (2. order) : 0.1768996E-03  (-0.1810943E-04)
 number of electron     188.0000013 magnetization      24.0212047
 augmentation part      103.2758079 magnetization      19.2703587

 Broyden mixing:
  rms(total) = 0.25777E-01    rms(broyden)= 0.25776E-01
  rms(prec ) = 0.37357E-01
  weight for this iteration     100.00

 eigenvalues of (default mixing * dielectric matrix)
  average eigenvalue GAMMA=   2.3143
  6.6497  4.8258  3.1786  3.1786  0.1988  1.2201  1.0295  1.0295  0.9925  0.8394

 Free energy of the ion-electron system (eV)
  ---------------------------------------------------
  alpha Z        PSCENC =      1093.71446075
  Ewald energy   TEWEN  =    -20671.17474946
  -Hartree energ DENC   =     -9220.51179661
  -exchange      EXHF   =         0.00000000
  -V(xc)+E(xc)   XCENC  =       454.95045845
  PAW double counting   =     28962.55065469   -29994.09395211
  entropy T*S    EENTRO =         0.00257810
  eigenvalues    EBANDS =     -2560.42119716
  atomic energy  EATOM  =     31828.18944640
  Solvation  Ediel_sol  =         0.00000000
  ---------------------------------------------------
  free energy    TOTEN  =      -106.79409695 eV

  energy without entropy =     -106.79667505  energy(sigma->0) =     -106.79495632


--------------------------------------------------------------------------------------------------------




--------------------------------------- Iteration      1(  17)  ---------------------------------------


    POTLOK:  cpu time    0.0760: real time    0.0765
    SETDIJ:  cpu time    0.2520: real time    0.2549
     EDDAV:  cpu time   12.4888: real time   12.5258
       DOS:  cpu time    0.0080: real time    0.0084
    CHARGE:  cpu time    0.5240: real time    0.5271
    MIXING:  cpu time    0.0040: real time    0.0016
    --------------------------------------------
      LOOP:  cpu time   13.3528: real time   13.3942

 eigenvalue-minimisations  : 22584
 total energy-change (2. order) : 0.7746357E-04  (-0.2831905E-04)
 number of electron     188.0000013 magnetization      24.0300316
 augmentation part      103.2649260 magnetization      19.2766607

 Broyden mixing:
  rms(total) = 0.10605E-01    rms(broyden)= 0.10597E-01
  rms(prec ) = 0.13899E-01
  weight for this iteration     100.00

 eigenvalues of (default mixing * dielectric matrix)
  average eigenvalue GAMMA=   2.4001
  7.0559  4.9864  4.0967  4.0967  0.1988  1.2153  1.0141  1.0141  0.9449  0.9449
  0.8336

 Free energy of the ion-electron system (eV)
  ---------------------------------------------------
  alpha Z        PSCENC =      1093.71446075
  Ewald energy   TEWEN  =    -20671.17474946
  -Hartree energ DENC   =     -9220.83983695
  -exchange      EXHF   =         0.00000000
  -V(xc)+E(xc)   XCENC  =       454.98324442
  PAW double counting   =     28961.58173662   -29993.27017915
  entropy T*S    EENTRO =         0.00271623
  eigenvalues    EBANDS =     -2559.98085836
  atomic energy  EATOM  =     31828.18944640
  Solvation  Ediel_sol  =         0.00000000
  ---------------------------------------------------
  free energy    TOTEN  =      -106.79401949 eV

  energy without entropy =     -106.79673572  energy(sigma->0) =     -106.79492490


--------------------------------------------------------------------------------------------------------




--------------------------------------- Iteration      1(  18)  ---------------------------------------


    POTLOK:  cpu time    0.0760: real time    0.0760
    SETDIJ:  cpu time    0.2480: real time    0.2502
     EDDAV:  cpu time   12.8088: real time   12.8472
       DOS:  cpu time    0.0040: real time    0.0078
    CHARGE:  cpu time    0.5320: real time    0.5312
    MIXING:  cpu time    0.0000: real time    0.0015
    --------------------------------------------
      LOOP:  cpu time   13.6689: real time   13.7141

 eigenvalue-minimisations  : 23248
 total energy-change (2. order) :-0.4618640E-05  (-0.4160025E-05)
 number of electron     188.0000013 magnetization      24.0284867
 augmentation part      103.2618525 magnetization      19.2740513

 Broyden mixing:
  rms(total) = 0.29510E-02    rms(broyden)= 0.29404E-02
  rms(prec ) = 0.33653E-02
  weight for this iteration     100.00

 eigenvalues of (default mixing * dielectric matrix)
  average eigenvalue GAMMA=   2.4234
  6.6826  5.0307  4.0951  4.0951  2.7818  0.1988  1.2260  1.0197  1.0197  1.1244
  0.9654  0.8417

[...]
  0.000   0.000  -0.002   0.000  -0.000   0.000  -0.000   0.000   0.003   0.000   0.000   0.000  -2.855   0.000   0.000   0.000
 -0.000   0.000  -0.000   0.000  -0.002   0.000   0.000   0.000   0.000   0.000   0.003   0.000   0.000   0.000  -2.855   0.000
  0.000   0.000  -0.000   0.000  -0.000   0.000  -0.000   0.000   0.000   0.000   0.000   0.000  -0.000   0.000   0.000   0.000
 -0.002   0.000   0.000   0.000  -0.000   0.000   0.003   0.000  -0.000   0.000   0.000   0.000   0.000   0.000   0.000   0.000
  0.000   0.000  -0.000   0.000   0.000   0.000  -0.000   0.000   0.000   0.000  -0.000   0.000  -0.000   0.000  -0.000   0.000
  0.000   0.000   0.000   0.000  -0.000   0.000   0.000   0.000   0.000   0.000  -0.000   0.000  -0.000   0.000  -0.000   0.000
  0.000   0.000   0.000   0.000  -0.000   0.000   0.000   0.000   0.000   0.000  -0.000   0.000  -0.000   0.000  -0.000   0.000
 pseudopotential strength for first ion, spin component:           2
-43.386   0.000   0.000   0.000   0.000   0.000   6.919   0.000  -0.000   0.000  -0.000   0.000   0.000   0.000  -0.000   0.000
  0.000   0.000 -43.385   0.000   0.000   0.000  -0.000   0.000   6.919   0.000  -0.000   0.000   0.016   0.000  -0.000   0.000
  0.000   0.000   0.000   0.000 -43.386   0.000  -0.000   0.000  -0.000   0.000   6.919   0.000  -0.000   0.000   0.016   0.000
  6.919   0.000  -0.000   0.000  -0.000   0.000   5.846   0.000  -0.000   0.000  -0.000   0.000  -0.000   0.000   0.000   0.000
 -0.000   0.000   6.919   0.000  -0.000   0.000  -0.000   0.000   5.846   0.000  -0.000   0.000  -0.006   0.000   0.000   0.000
 -0.000   0.000  -0.000   0.000   6.919   0.000  -0.000   0.000  -0.000   0.000   5.846   0.000   0.000   0.000  -0.006   0.000
  0.000   0.000   0.016   0.000  -0.000   0.000  -0.000   0.000  -0.006   0.000   0.000   0.000  -0.839   0.000   0.000   0.000
 -0.000   0.000  -0.000   0.000   0.016   0.000   0.000   0.000   0.000   0.000  -0.006   0.000   0.000   0.000  -0.838   0.000
  0.000   0.000  -0.000   0.000  -0.000   0.000  -0.000   0.000   0.000   0.000   0.000   0.000  -0.000   0.000   0.000   0.000
  0.016   0.000   0.000   0.000  -0.000   0.000  -0.006   0.000  -0.000   0.000   0.000   0.000   0.000   0.000   0.000   0.000
  0.000   0.000  -0.000   0.000   0.000   0.000  -0.000   0.000   0.000   0.000  -0.000   0.000  -0.000   0.000  -0.000   0.000
  0.000   0.000   0.016   0.000  -0.000   0.000  -0.000   0.000  -0.006   0.000   0.000   0.000  -1.374   0.000   0.000   0.000
 -0.000   0.000  -0.000   0.000   0.016   0.000   0.000   0.000   0.000   0.000  -0.006   0.000   0.000   0.000  -1.374   0.000
  0.000   0.000  -0.000   0.000  -0.000   0.000  -0.000   0.000   0.000   0.000   0.000   0.000  -0.000   0.000   0.000   0.000
  0.016   0.000   0.000   0.000  -0.000   0.000  -0.006   0.000  -0.000   0.000   0.000   0.000   0.000   0.000   0.000   0.000
  0.000   0.000  -0.000   0.000   0.000   0.000  -0.000   0.000   0.000   0.000  -0.000   0.000  -0.000   0.000  -0.000   0.000
  0.000   0.000   0.000   0.000  -0.000   0.000   0.000   0.000   0.000   0.000  -0.000   0.000  -0.000   0.000  -0.000   0.000
  0.000   0.000   0.000   0.000  -0.000   0.000   0.000   0.000   0.000   0.000  -0.000   0.000  -0.000   0.000  -0.000   0.000
 total augmentation occupancy for first ion, spin component:           1
  1.994   0.000   0.000  -0.020   0.000   0.000  -0.000   0.000   0.000   0.009   0.000  -0.000  -0.000   0.000  -0.009   0.000
  0.000   1.994   0.000   0.000  -0.020   0.000   0.009   0.000   0.000  -0.000  -0.000  -0.009  -0.000  -0.000  -0.000  -0.000
  0.000   0.000   1.994   0.000   0.000  -0.020   0.000   0.009   0.000   0.000   0.000  -0.000  -0.009   0.000  -0.000  -0.000
 -0.020   0.000   0.000   0.163   0.000   0.000   0.000   0.000   0.000   0.049  -0.000   0.000   0.000   0.000  -0.030   0.000
 -0.000  -0.020  -0.000   0.000   0.163   0.000   0.049   0.000   0.000  -0.000  -0.000  -0.030   0.000   0.000  -0.000  -0.000
  0.000   0.000  -0.020   0.000   0.000   0.163   0.000   0.049  -0.000   0.000  -0.000  -0.000  -0.030  -0.000   0.000   0.000
  0.000   0.009   0.000  -0.000   0.049  -0.000   2.101   0.000   0.000  -0.000   0.000  -1.135  -0.000  -0.000   0.000   0.000
  0.000   0.000   0.009   0.000   0.000   0.049  -0.000   2.101  -0.000  -0.000   0.000   0.000  -1.135  -0.000   0.000  -0.000
  0.000   0.000  -0.000  -0.000  -0.000   0.000  -0.000   0.000   2.473   0.000   0.000   0.000   0.000  -1.325   0.000   0.000
  0.009   0.000   0.000   0.049   0.000  -0.000   0.000  -0.000   0.000   2.101   0.000  -0.000  -0.000  -0.000  -1.135   0.000
  0.000   0.000  -0.000  -0.000  -0.000  -0.000   0.000   0.000   0.000   0.000   2.474   0.000  -0.000   0.000   0.000  -1.325
 -0.000  -0.009   0.000   0.000  -0.030  -0.000  -1.135   0.000   0.000   0.000   0.000   1.548   0.000   0.000  -0.000   0.000
 -0.000  -0.000  -0.009   0.000  -0.000  -0.030   0.000  -1.135  -0.000  -0.000   0.000   0.000   1.548  -0.000  -0.000   0.000
 -0.000  -0.000   0.000   0.000   0.000  -0.000  -0.000  -0.000  -1.325   0.000  -0.000   0.000   0.000   1.492  -0.000  -0.000
 -0.009   0.000  -0.000  -0.030  -0.000   0.000   0.000  -0.000   0.000  -1.135   0.000   0.000   0.000   0.000   1.548  -0.000
 -0.000  -0.000  -0.000   0.000   0.000  -0.000  -0.000  -0.000   0.000   0.000  -1.325   0.000   0.000  -0.000   0.000   1.492
  0.000   0.000  -0.000  -0.000   0.000   0.000   0.000   0.000  -0.000  -0.000  -0.000   0.000  -0.000   0.000   0.000   0.000
  0.000   0.000   0.000   0.000   0.000   0.000  -0.000   0.000  -0.000   0.000  -0.000  -0.000  -0.000   0.000  -0.000  -0.000
 total augmentation occupancy for first ion, spin component:           2
 -0.002   0.000   0.000  -0.007  -0.000   0.000  -0.000   0.000   0.000   0.007  -0.000  -0.000   0.000  -0.000  -0.007   0.000
  0.000  -0.002   0.000  -0.000  -0.007   0.000   0.007   0.000   0.000   0.000  -0.000  -0.007   0.000   0.000   0.000   0.000
  0.000   0.000  -0.002   0.000   0.000  -0.007  -0.000   0.007  -0.000   0.000  -0.000   0.000  -0.007  -0.000   0.000  -0.000
 -0.007  -0.000   0.000  -0.000  -0.000   0.000  -0.000  -0.000  -0.000  -0.028   0.000  -0.000  -0.000   0.000  -0.006   0.000
 -0.000  -0.007   0.000  -0.000  -0.000   0.000  -0.028  -0.000  -0.000  -0.000   0.000  -0.006   0.000   0.000   0.000  -0.000
  0.000   0.000  -0.007   0.000   0.000  -0.000  -0.000  -0.028   0.000   0.000  -0.000  -0.000  -0.006   0.000  -0.000   0.000
  0.000   0.007  -0.000   0.000  -0.028   0.000   1.287  -0.000   0.000  -0.000   0.000  -0.315  -0.000  -0.000   0.000   0.000
 -0.000  -0.000   0.007   0.000  -0.000  -0.028  -0.000   1.287   0.000  -0.000  -0.000   0.000  -0.315  -0.000  -0.000  -0.000
  0.000  -0.000  -0.000  -0.000   0.000  -0.000   0.000  -0.000   1.980   0.000  -0.000   0.000  -0.000  -0.701   0.000   0.000
  0.007   0.000  -0.000  -0.028  -0.000   0.000   0.000   0.000  -0.000   1.287   0.000  -0.000   0.000  -0.000  -0.315  -0.000
 -0.000  -0.000  -0.000   0.000  -0.000  -0.000  -0.000   0.000  -0.000  -0.000   1.981   0.000   0.000   0.000   0.000  -0.701
 -0.000  -0.007  -0.000  -0.000  -0.006  -0.000  -0.315   0.000  -0.000   0.000   0.000  -0.190   0.000  -0.000  -0.000  -0.000
  0.000  -0.000  -0.007  -0.000   0.000  -0.006  -0.000  -0.315  -0.000  -0.000   0.000   0.000  -0.190   0.000   0.000  -0.000
  0.000  -0.000  -0.000   0.000   0.000   0.000   0.000   0.000  -0.701   0.000  -0.000   0.000   0.000   0.039   0.000   0.000
 -0.007   0.000   0.000  -0.006  -0.000  -0.000  -0.000   0.000  -0.000  -0.315   0.000   0.000  -0.000  -0.000  -0.190   0.000
 -0.000   0.000   0.000   0.000  -0.000   0.000  -0.000   0.000   0.000  -0.000  -0.701  -0.000   0.000   0.000   0.000   0.039
 -0.000   0.000  -0.000   0.000   0.000  -0.000  -0.000   0.000  -0.000   0.000  -0.000  -0.000  -0.000  -0.000   0.000   0.000
  0.000   0.000   0.000   0.000  -0.000  -0.000   0.000  -0.000  -0.000   0.000   0.000  -0.000   0.000   0.000   0.000   0.000


------------------------ aborting loop because EDIFF is reached ----------------------------------------


 


 total charge     
 
# of ion       s       p       d       tot
------------------------------------------
    1        0.310   6.304   6.177  12.791
    2        0.310   6.304   6.177  12.791
    3        0.310   6.304   6.177  12.791
    4        0.310   6.304   6.177  12.791
    5        0.310   6.304   6.177  12.791
    6        0.310   6.304   6.177  12.791
    7        0.310   6.304   6.177  12.791
    8        0.310   6.304   6.177  12.791
    9        0.419   6.408   7.240  14.067
   10        0.419   6.408   7.240  14.067
   11        0.419   6.408   7.240  14.067
   12        0.419   6.408   7.240  14.067
   13        1.321   2.051   0.351   3.723
   14        1.321   2.051   0.351   3.723
   15        1.321   2.051   0.351   3.723
   16        1.321   2.051   0.351   3.723
--------------------------------------------------
tot          9.436  84.271  79.779 173.486
 


 magnetization (x)
 
# of ion       s       p       d       tot
------------------------------------------
    1        0.008  -0.002   2.220   2.227
    2        0.008  -0.002   2.220   2.227
    3        0.008  -0.002   2.220   2.227
    4        0.008  -0.002   2.220   2.227
    5        0.008  -0.002   2.220   2.227
    6        0.008  -0.002   2.220   2.227
    7        0.008  -0.002   2.220   2.227
    8        0.008  -0.002   2.220   2.227
    9       -0.021  -0.033   1.790   1.737
   10       -0.021  -0.033   1.790   1.737
   11       -0.021  -0.033   1.790   1.737
   12       -0.021  -0.033   1.790   1.737
   13       -0.013  -0.082  -0.016  -0.111
   14       -0.013  -0.082  -0.016  -0.111
   15       -0.013  -0.082  -0.016  -0.111
   16       -0.013  -0.082  -0.016  -0.111
--------------------------------------------------
tot         -0.067  -0.478  24.860  24.315
 
    CHARGE:  cpu time    1.0521: real time    1.0563
    FORLOC:  cpu time    0.0080: real time    0.0053
    FORNL :  cpu time    2.7602: real time    2.7727
    STRESS:  cpu time    8.5725: real time    8.6034
    FORCOR:  cpu time    0.0720: real time    0.0702
    FORHAR:  cpu time    0.0120: real time    0.0111
    MIXING:  cpu time    0.0000: real time    0.0016
    OFIELD:  cpu time    0.0000: real time    0.0000

  FORCE on cell =-STRESS in cart. coord.  units (eV):
  Direction    XX          YY          ZZ          XY          YZ          ZX
  --------------------------------------------------------------------------------------
  Alpha Z  1093.71446  1093.71446  1093.71446
  Ewald   -6890.45285 -6890.45285 -6890.32853     0.00000    -0.00000    -0.00000
  Hartree  3073.62651  3073.62651  3073.67448    -0.00000    -0.00000    -0.00000
  E(xc)   -1191.28883 -1191.28883 -1191.28849     0.00000     0.00000    -0.00000
  Local     691.04263   691.04263   690.86492     0.00000     0.00000     0.00000
  n-local  -199.38134  -195.55239  -197.45905    -0.21974    -0.04235    -0.40737
  augment  1671.71095  1671.71095  1671.70812     0.00000     0.00000     0.00000
  Kinetic  1743.59552  1754.89370  1749.23742    -0.72028    -0.35658    -1.09540
  Fock        0.00000     0.00000     0.00000     0.00000     0.00000     0.00000
  -------------------------------------------------------------------------------------
  Total       0.13063     0.13063     0.12333     0.00000     0.00000     0.00000
  in kB       0.96434     0.96434     0.91044     0.00000     0.00000     0.00000
  external pressure =        0.95 kB  Pullay stress =        0.00 kB


 VOLUME and BASIS-vectors are now :
 -----------------------------------------------------------------------------
  energy-cutoff  :      500.00
  volume of cell :      217.03
      direct lattice vectors                 reciprocal lattice vectors
     6.009986252  0.000000000  0.000000000     0.166389732  0.000000000  0.000000000
     0.000000000  6.009986252  0.000000000     0.000000000  0.166389732  0.000000000
     0.000000000  0.000000000  6.008711689     0.000000000  0.000000000  0.166425026

  length of vectors
     6.009986252  6.009986252  6.008711689     0.166389732  0.166389732  0.166425026


 FORCES acting on ions
    electron-ion (+dipol)            ewald-force                    non-local-force                 convergence-correction
 -----------------------------------------------------------------------------------------------
   0.134E-11 0.410E-11 0.398E-11   0.426E-13 0.924E-13 0.711E-14   -.130E-17 -.108E-18 0.000E+00   -.515E-12 -.571E-12 0.246E-12
   0.775E-13 -.231E-11 0.257E-11   0.426E-13 0.995E-13 -.142E-13   0.564E-17 0.195E-17 0.195E-17   0.238E-12 -.237E-13 -.275E-12
   0.179E-11 0.170E-12 0.130E-12   0.711E-13 0.995E-13 -.142E-13   -.651E-17 0.108E-18 0.434E-18   0.111E-12 0.641E-13 -.283E-12
   0.300E-11 -.492E-11 -.396E-11   0.711E-13 0.924E-13 0.711E-14   -.304E-17 -.108E-18 -.867E-18   -.611E-12 -.571E-12 0.251E-12
   0.787E-13 0.260E-11 -.232E-11   0.711E-13 0.995E-13 -.711E-14   0.104E-16 0.184E-17 0.000E+00   0.249E-12 0.810E-13 -.255E-12
   0.300E-11 -.386E-11 -.499E-11   0.711E-13 0.924E-13 0.142E-13   0.217E-17 -.108E-18 0.867E-18   -.666E-12 -.555E-12 0.257E-12
   0.132E-11 -.912E-12 -.100E-11   0.711E-13 0.924E-13 0.142E-13   0.390E-17 -.108E-18 0.260E-17   -.532E-12 -.661E-12 0.286E-12
   0.179E-11 -.147E-10 -.148E-10   0.711E-13 0.995E-13 -.711E-14   -.130E-17 0.195E-17 -.239E-17   0.159E-12 0.711E-13 -.293E-12
   0.186E-11 -.903E-13 -.106E-12   -.883E-13 -.172E-12 -.616E-15   0.000E+00 -.129E-25 0.000E+00   -.181E-12 0.453E-12 0.308E-13
   -.138E-12 0.212E-11 -.808E-13   -.118E-12 -.133E-12 -.755E-15   0.000E+00 0.000E+00 -.155E-24   0.211E-12 0.198E-12 -.491E-14
   -.138E-12 -.626E-13 0.183E-11   -.106E-12 -.184E-12 0.461E-14   0.103E-24 0.000E+00 -.258E-25   0.143E-12 0.431E-12 -.574E-13
   0.186E-11 0.969E-11 0.941E-11   -.117E-12 -.145E-12 0.447E-14   -.103E-24 -.258E-25 0.000E+00   -.197E-12 0.281E-12 0.170E-13
   -.489E-13 -.675E-13 0.283E-11   -.332E-13 -.273E-13 0.600E-14   0.439E-24 0.414E-24 -.414E-24   -.405E-13 0.869E-14 -.334E-14
   -.319E-13 -.357E-13 -.480E-13   -.360E-13 -.110E-13 0.131E-13   0.414E-24 -.620E-24 0.414E-24   0.550E-13 -.429E-13 -.341E-14
   -.488E-13 0.284E-11 -.920E-14   -.327E-13 -.180E-13 -.185E-13   -.414E-24 -.310E-24 0.000E+00   -.458E-13 -.442E-13 0.363E-14
   -.262E-13 -.693E-13 -.960E-14   -.354E-13 -.281E-13 0.171E-13   0.439E-24 -.207E-24 0.000E+00   0.516E-13 0.770E-14 0.494E-14
 -----------------------------------------------------------------------------------------------
   0.157E-10 -.557E-11 -.655E-11   -.558E-13 0.484E-13 0.254E-13   0.997E-17 0.542E-17 0.260E-17   -.157E-11 -.874E-12 -.789E-13
 
 
 POSITION                                       TOTAL-FORCE (eV/Angst)
 -----------------------------------------------------------------------------------
      1.50250      1.50250      1.50218         0.000000     -0.000000     -0.000000
      1.50250      4.50749      1.50218         0.000000      0.000000     -0.000000
      4.50749      1.50250      1.50218        -0.000000      0.000000     -0.000000
      4.50749      4.50749      1.50218        -0.000000      0.000000     -0.000000
      1.50250      1.50250      4.50653        -0.000000      0.000000      0.000000
      4.50749      1.50250      4.50653        -0.000000     -0.000000      0.000000
      1.50250      4.50749      4.50653         0.000000      0.000000      0.000000
      4.50749      4.50749      4.50653        -0.000000     -0.000000      0.000000
      3.00499      0.00000      0.00000        -0.000000     -0.000000     -0.000000
      0.00000      3.00499      0.00000        -0.000000     -0.000000      0.000000
      0.00000      0.00000      3.00436         0.000000     -0.000000      0.000000
      3.00499      3.00499      3.00436         0.000000     -0.000000      0.000000
      3.00499      0.00000      3.00436        -0.000000     -0.000000      0.000000
      0.00000      3.00499      3.00436        -0.000000     -0.000000      0.000000
      3.00499      3.00499      0.00000        -0.000000     -0.000000      0.000000
      0.00000      0.00000      0.00000        -0.000000     -0.000000      0.000000
 -----------------------------------------------------------------------------------
    total drift:                                0.000000     -0.000000     -0.000000


--------------------------------------------------------------------------------------------------------



  FREE ENERGIE OF THE ION-ELECTRON SYSTEM (eV)
  ---------------------------------------------------
  free  energy   TOTEN  =      -106.79401936 eV

  energy  without entropy=     -106.79678587  energy(sigma->0) =     -106.79494153
 


--------------------------------------------------------------------------------------------------------


    POTLOK:  cpu time    0.3200: real time    0.3228


--------------------------------------------------------------------------------------------------------


     LOOP+:  cpu time  271.7290: real time  272.9357
    4ORBIT:  cpu time    0.0000: real time    0.0000
 


 total charge     
 
# of ion       s       p       d       tot
------------------------------------------
    1        0.310   6.304   6.177  12.791
    2        0.310   6.304   6.177  12.791
    3        0.310   6.304   6.177  12.791
    4        0.310   6.304   6.177  12.791
    5        0.310   6.304   6.177  12.791
    6        0.310   6.304   6.177  12.791
    7        0.310   6.304   6.177  12.791
    8        0.310   6.304   6.177  12.791
    9        0.419   6.408   7.240  14.067
   10        0.419   6.408   7.240  14.067
   11        0.419   6.408   7.240  14.067
   12        0.419   6.408   7.240  14.067
   13        1.321   2.051   0.351   3.723
   14        1.321   2.051   0.351   3.723
   15        1.321   2.051   0.351   3.723
   16        1.321   2.051   0.351   3.723
--------------------------------------------------
tot          9.436  84.271  79.779 173.486
 


 magnetization (x)
 
# of ion       s       p       d       tot
------------------------------------------
    1        0.008  -0.002   2.220   2.227
    2        0.008  -0.002   2.220   2.227
    3        0.008  -0.002   2.220   2.227
    4        0.008  -0.002   2.220   2.227
    5        0.008  -0.002   2.220   2.227
    6        0.008  -0.002   2.220   2.227
    7        0.008  -0.002   2.220   2.227
    8        0.008  -0.002   2.220   2.227
    9       -0.021  -0.033   1.790   1.737
   10       -0.021  -0.033   1.790   1.737
   11       -0.021  -0.033   1.790   1.737
   12       -0.021  -0.033   1.790   1.737
   13       -0.013  -0.082  -0.016  -0.111
   14       -0.013  -0.082  -0.016  -0.111
   15       -0.013  -0.082  -0.016  -0.111
   16       -0.013  -0.082  -0.016  -0.111
--------------------------------------------------
tot         -0.067  -0.478  24.860  24.315
 

 total amount of memory used by VASP MPI-rank0    54790. kBytes
=======================================================================

   base      :      30000. kBytes
   nonlr-proj:       4575. kBytes
   fftplans  :       4343. kBytes
   grid      :       3686. kBytes
   one-center:         62. kBytes
   wavefun   :      12124. kBytes
 
  
  
 General timing and accounting informations for this job:
 ========================================================
  
                  Total CPU time used (sec):      284.494
                            User time (sec):      282.518
                          System time (sec):        1.976
                         Elapsed time (sec):      287.016
  
                   Maximum memory used (kb):     1021276.
                   Average memory used (kb):           0.
  
                          Minor page faults:       465612
                          Major page faults:            0
                 Voluntary context switches:         4763
