 vasp.6.1.1 19Jun20 (build Jan 21 2021 08:43:03) complex                        
  
 executed on             LinuxIFC date 2023.04.01  03:55:31
 running on   80 total cores
 distrk:  each k-point on   80 cores,    1 groups
 distr:  one band on NCORE=  10 cores,    8 groups


--------------------------------------------------------------------------------------------------------


 INCAR:
 POTCAR:    PAW_PBE Fe_pv 02Aug2007               
 POTCAR:    PAW_PBE Co_pv 23Apr2009               
 POTCAR:       PAW_PBE Si 05Jan2001               
 POTCAR:    PAW_PBE Fe_pv 02Aug2007               
   VRHFIN =Fe:  3pd7s1                                                                              
   LEXCH  = PE                                                                                      
   EATOM  =  2457.4239 eV,  180.6156 Ry                                                             
                                                                                                    
   TITEL  = PAW_PBE Fe_pv 02Aug2007                                                                 
   LULTRA =        F    use ultrasoft PP ?                                                          
   IUNSCR =        1    unscreen: 0-lin 1-nonlin 2-no                                               
   RPACOR =    1.750    partial core radius                                                         
   POMASS =   55.847; ZVAL   =   14.000    mass and valenz                                          
   RCORE  =    2.200    outmost cutoff radius                                                       
   RWIGS  =    2.200; RWIGS  =    1.164    wigner-seitz radius (au A)                               
   ENMAX  =  293.238; ENMIN  =  219.928 eV                                                          
   ICORE  =        3    local potential                                                             
   LCOR   =        T    correct aug charges                                                         
   LPAW   =        T    paw PP                                                                      
   EAUG   =  578.342                                                                                
   DEXC   =    0.000                                                                                
   RMAX   =    2.249    core radius for proj-oper                                                   
   RAUG   =    1.300    factor for augmentation sphere                                              
   RDEP   =    2.296    radius for radial grids                                                     
   RDEPT  =    1.766    core radius for aug-charge                                                  
                                                                                                    
   Atomic configuration                                                                             
    8 entries                                                                                       
     n  l   j            E        occ.                                                              
     1  0  0.50     -6993.8440   2.0000                                                             
     2  0  0.50      -814.6047   2.0000                                                             
     2  1  1.50      -693.3689   6.0000                                                             
     3  0  0.50       -89.4732   2.0000                                                             
     3  1  1.50       -55.6373   6.0000                                                             
     3  2  2.50        -3.8151   7.0000                                                             
     4  0  0.50        -4.2551   1.0000                                                             
     4  3  2.50        -1.3606   0.0000                                                             
   Description                                                                                      
     l       E           TYP  RCUT    TYP  RCUT                                                     
     1    -55.6372668     23  2.000                                                                 
     1     -5.4423304     23  2.000                                                                 
     2     -3.8151096     23  2.200                                                                 
     2     -5.1756922     23  2.200                                                                 
     0     -4.2550951     23  2.200                                                                 
     0     27.2116520     23  2.200                                                                 
     3     -1.3605826     23  2.200                                                                 
  local pseudopotential read in
  partial core-charges read in
  partial kinetic energy density read in
  atomic valenz-charges read in
  non local Contribution for L=           1  read in
    real space projection operators read in
  non local Contribution for L=           1  read in
    real space projection operators read in
  non local Contribution for L=           2  read in
    real space projection operators read in
  non local Contribution for L=           2  read in
    real space projection operators read in
  non local Contribution for L=           0  read in
    real space projection operators read in
  non local Contribution for L=           0  read in
    real space projection operators read in
    PAW grid and wavefunctions read in
 
   number of l-projection  operators is LMAX  =           6
   number of lm-projection operators is LMMAX =          18
 
 POTCAR:    PAW_PBE Co_pv 23Apr2009               
   VRHFIN =Co: 3pd7s1                                                                               
   LEXCH  = PE                                                                                      
   EATOM  =  2948.1334 eV,  216.6817 Ry                                                             
                                                                                                    
   TITEL  = PAW_PBE Co_pv 23Apr2009                                                                 
   LULTRA =        F    use ultrasoft PP ?                                                          
   IUNSCR =        1    unscreen: 0-lin 1-nonlin 2-no                                               
   RPACOR =    2.000    partial core radius                                                         
   POMASS =   58.933; ZVAL   =   15.000    mass and valenz                                          
   RCORE  =    2.300    outmost cutoff radius                                                       
   RWIGS  =    2.460; RWIGS  =    1.302    wigner-seitz radius (au A)                               
   ENMAX  =  271.042; ENMIN  =  203.281 eV                                                          
   ICORE  =        3    local potential                                                             
   LCOR   =        T    correct aug charges                                                         
   LPAW   =        T    paw PP                                                                      
   EAUG   =  543.066                                                                                
   DEXC   =    0.000                                                                                
   RMAX   =    2.360    core radius for proj-oper                                                   
   RAUG   =    1.300    factor for augmentation sphere                                              
   RDEP   =    2.393    radius for radial grids                                                     
   RDEPT  =    1.841    core radius for aug-charge                                                  
                                                                                                    
   Atomic configuration                                                                             
    8 entries                                                                                       
     n  l   j            E        occ.                                                              
     1  0  0.50     -7587.6674   2.0000                                                             
     2  0  0.50      -893.6084   2.0000                                                             
     2  1  1.50      -764.5805   6.0000                                                             
     3  0  0.50       -97.5973   2.0000                                                             
     3  1  1.50       -60.9648   6.0000                                                             
     3  2  2.50        -4.2382   8.0000                                                             
     4  0  0.50        -4.3746   1.0000                                                             
     4  3  2.50        -1.3606   0.0000                                                             
   Description                                                                                      
     l       E           TYP  RCUT    TYP  RCUT                                                     
     1    -60.9647990     23  2.000                                                                 
     1     -5.4423304     23  2.000                                                                 
     2     -4.2382362     23  2.300                                                                 
     2     -5.5988188     23  2.300                                                                 
     0     -4.3745797     23  2.300                                                                 
     0      5.7660125     23  2.300                                                                 
     3     -1.3605826     23  2.300                                                                 
  local pseudopotential read in
  partial core-charges read in
  partial kinetic energy density read in
  atomic valenz-charges read in
  non local Contribution for L=           1  read in
    real space projection operators read in
  non local Contribution for L=           1  read in
    real space projection operators read in
  non local Contribution for L=           2  read in
    real space projection operators read in
  non local Contribution for L=           2  read in
    real space projection operators read in
  non local Contribution for L=           0  read in
    real space projection operators read in
  non local Contribution for L=           0  read in
    real space projection operators read in
    PAW grid and wavefunctions read in
 
   number of l-projection  operators is LMAX  =           6
   number of lm-projection operators is LMMAX =          18
 
 POTCAR:       PAW_PBE Si 05Jan2001               
   VRHFIN =Si: s2p2                                                                                 
   LEXCH  = PE                                                                                      
   EATOM  =   103.0669 eV,    7.5752 Ry                                                             
                                                                                                    
   TITEL  = PAW_PBE Si 05Jan2001                                                                    
   LULTRA =        F    use ultrasoft PP ?                                                          
   IUNSCR =        1    unscreen: 0-lin 1-nonlin 2-no                                               
   RPACOR =    1.500    partial core radius                                                         
   POMASS =   28.085; ZVAL   =    4.000    mass and valenz                                          
   RCORE  =    1.900    outmost cutoff radius                                                       
   RWIGS  =    2.480; RWIGS  =    1.312    wigner-seitz radius (au A)                               
   ENMAX  =  245.345; ENMIN  =  184.009 eV                                                          
   ICORE  =        2    local potential                                                             
   LCOR   =        T    correct aug charges                                                         
   LPAW   =        T    paw PP                                                                      
   EAUG   =  322.069                                                                                
   DEXC   =    0.000                                                                                
   RMAX   =    1.950    core radius for proj-oper                                                   
   RAUG   =    1.300    factor for augmentation sphere                                              
   RDEP   =    1.993    radius for radial grids                                                     
   RDEPT  =    1.837    core radius for aug-charge                                                  
                                                                                                    
   Atomic configuration                                                                             
    6 entries                                                                                       
     n  l   j            E        occ.                                                              
     1  0  0.50     -1785.8828   2.0000                                                             
     2  0  0.50      -139.4969   2.0000                                                             
     2  1  1.50       -95.5546   6.0000                                                             
     3  0  0.50       -10.8127   2.0000                                                             
     3  1  0.50        -4.0811   2.0000                                                             
     3  2  1.50        -4.0817   0.0000                                                             
   Description                                                                                      
     l       E           TYP  RCUT    TYP  RCUT                                                     
     0    -10.8127223     23  1.900                                                                 
     0     -7.6451159     23  1.900                                                                 
     1     -4.0811372     23  1.900                                                                 
     1      2.4879257     23  1.900                                                                 
     2     -4.0817478      7  1.900                                                                 
  local pseudopotential read in
  partial core-charges read in
  partial kinetic energy density read in
  atomic valenz-charges read in
  non local Contribution for L=           0  read in
    real space projection operators read in
  non local Contribution for L=           0  read in
    real space projection operators read in
  non local Contribution for L=           1  read in
    real space projection operators read in
  non local Contribution for L=           1  read in
    real space projection operators read in
    PAW grid and wavefunctions read in
 
   number of l-projection  operators is LMAX  =           4
   number of lm-projection operators is LMMAX =           8
 
 Optimization of the real space projectors (new method)

 maximal supplied QI-value         = 17.01
 optimisation between [QCUT,QGAM] = [ 11.40, 22.79] = [ 36.36,145.44] Ry 
 Optimized for a Real-space Cutoff    1.47 Angstroem

   l    n(q)    QCUT    max X(q) W(low)/X(q) W(high)/X(q)  e(spline) 
   1     10    11.395     4.267    0.90E-04    0.11E-03    0.18E-06
   1     10    11.395     5.750    0.14E-03    0.15E-03    0.25E-06
   2      9    11.395    53.656    0.13E-03    0.36E-04    0.15E-06
   2      9    11.395    49.521    0.14E-03    0.36E-04    0.15E-06
   0     10    11.395    31.246    0.58E-04    0.17E-05    0.98E-07
   0     10    11.395    12.201    0.41E-04    0.11E-05    0.82E-07
 Optimization of the real space projectors (new method)

 maximal supplied QI-value         = 16.25
 optimisation between [QCUT,QGAM] = [ 11.38, 22.75] = [ 36.24,144.96] Ry 
 Optimized for a Real-space Cutoff    1.47 Angstroem

   l    n(q)    QCUT    max X(q) W(low)/X(q) W(high)/X(q)  e(spline) 
   1     10    11.376     4.946    0.88E-04    0.16E-03    0.15E-06
   1     10    11.376     5.991    0.13E-03    0.24E-03    0.21E-06
   2      9    11.376    46.947    0.87E-04    0.91E-04    0.20E-06
   2      9    11.376    42.928    0.91E-04    0.94E-04    0.20E-06
   0     10    11.376    68.324    0.58E-04    0.21E-04    0.82E-07
   0     10    11.376    36.926    0.52E-04    0.19E-04    0.78E-07
 Optimization of the real space projectors (new method)

 maximal supplied QI-value         = 19.84
 optimisation between [QCUT,QGAM] = [ 11.31, 22.82] = [ 35.82,145.81] Ry 
 Optimized for a Real-space Cutoff    1.20 Angstroem

   l    n(q)    QCUT    max X(q) W(low)/X(q) W(high)/X(q)  e(spline) 
   0      8    11.310   159.560    0.13E-03    0.16E-03    0.42E-07
   0      8    11.310   115.863    0.12E-03    0.16E-03    0.41E-07
   1      8    11.310    88.339    0.16E-03    0.14E-03    0.80E-07
   1      8    11.310    48.592    0.16E-03    0.14E-03    0.78E-07
  PAW_PBE Fe_pv 02Aug2007               :
 energy of atom  1       EATOM=-2457.4239
 kinetic energy error for atom=    0.0069 (will be added to EATOM!!)
  PAW_PBE Co_pv 23Apr2009               :
 energy of atom  2       EATOM=-2948.1334
 kinetic energy error for atom=    0.0060 (will be added to EATOM!!)
     PAW_PBE Si 05Jan2001               :
 energy of atom  3       EATOM= -103.0669
 kinetic energy error for atom=    0.0006 (will be added to EATOM!!)
 
 
 POSCAR: Heusler tetragonSi
  positions in direct lattice
  velocities in cartesian coordinates
 exchange correlation table for  LEXCH =        8
   RHO(1)=    0.500       N(1)  =     2000
   RHO(2)=  100.500       N(2)  =     4000
 


--------------------------------------------------------------------------------------------------------


 ion  position               nearest neighbor table
   1  0.250  0.250  0.250-   9 2.42  10 2.42  11 2.42  12 2.42  13 2.42  14 2.42  15 2.42  16 2.42
                             5 2.79   5 2.79   2 2.79   3 2.79   2 2.79   3 2.79
   2  0.250  0.750  0.250-   9 2.42  10 2.42  11 2.42  12 2.42  13 2.42  14 2.42  15 2.42  16 2.42
                             7 2.79   7 2.79   1 2.79   4 2.79   1 2.79   4 2.79
   3  0.750  0.250  0.250-   9 2.42  10 2.42  11 2.42  12 2.42  13 2.42  14 2.42  15 2.42  16 2.42
                             6 2.79   6 2.79   1 2.79   4 2.79   4 2.79   1 2.79
   4  0.750  0.750  0.250-   9 2.42  10 2.42  11 2.42  12 2.42  13 2.42  14 2.42  15 2.42  16 2.42
                             8 2.79   8 2.79   2 2.79   3 2.79   3 2.79   2 2.79
   5  0.250  0.250  0.750-   9 2.42  10 2.42  11 2.42  12 2.42  13 2.42  14 2.42  15 2.42  16 2.42
                             1 2.79   1 2.79   7 2.79   6 2.79   7 2.79   6 2.79
   6  0.750  0.250  0.750-   9 2.42  10 2.42  11 2.42  12 2.42  13 2.42  14 2.42  15 2.42  16 2.42
                             3 2.79   3 2.79   8 2.79   5 2.79   8 2.79   5 2.79
   7  0.250  0.750  0.750-   9 2.42  10 2.42  11 2.42  12 2.42  13 2.42  14 2.42  15 2.42  16 2.42
                             2 2.79   2 2.79   8 2.79   5 2.79   5 2.79   8 2.79
   8  0.750  0.750  0.750-   9 2.42  10 2.42  11 2.42  12 2.42  13 2.42  14 2.42  15 2.42  16 2.42
                             4 2.79   4 2.79   7 2.79   6 2.79   6 2.79   7 2.79
   9  0.500  0.000  0.000-   1 2.42   2 2.42   3 2.42   4 2.42   5 2.42   6 2.42   7 2.42   8 2.42
                            13 2.79  13 2.79  16 2.79  15 2.79  15 2.79  16 2.79
  10  0.000  0.500  0.000-   1 2.42   2 2.42   3 2.42   4 2.42   5 2.42   6 2.42   7 2.42   8 2.42
                            14 2.79  14 2.79  16 2.79  15 2.79  16 2.79  15 2.79
  11  0.000  0.000  0.500-   1 2.42   2 2.42   3 2.42   4 2.42   5 2.42   6 2.42   7 2.42   8 2.42
                            16 2.79  16 2.79  13 2.79  14 2.79  14 2.79  13 2.79
  12  0.500  0.500  0.500-   1 2.42   2 2.42   3 2.42   4 2.42   5 2.42   6 2.42   7 2.42   8 2.42
                            15 2.79  15 2.79  13 2.79  14 2.79  13 2.79  14 2.79
  13  0.500  0.000  0.500-   1 2.42   2 2.42   3 2.42   4 2.42   5 2.42   6 2.42   7 2.42   8 2.42
                             9 2.79   9 2.79  12 2.79  11 2.79  12 2.79  11 2.79
  14  0.000  0.500  0.500-   1 2.42   2 2.42   3 2.42   4 2.42   5 2.42   6 2.42   7 2.42   8 2.42
                            10 2.79  10 2.79  12 2.79  11 2.79  11 2.79  12 2.79
  15  0.500  0.500  0.000-   1 2.42   2 2.42   3 2.42   4 2.42   5 2.42   6 2.42   7 2.42   8 2.42
                            12 2.79  12 2.79   9 2.79  10 2.79   9 2.79  10 2.79
  16  0.000  0.000  0.000-   1 2.42   2 2.42   3 2.42   4 2.42   5 2.42   6 2.42   7 2.42   8 2.42
                            11 2.79  11 2.79   9 2.79  10 2.79  10 2.79   9 2.79
 
  LATTYP: Found a simple tetragonal cell.
 ALAT       =     5.5818213206
 C/A-ratio  =     0.9998002374
  
  Lattice vectors:
  
 A1 = (   5.5818213206,   0.0000000000,   0.0000000000)
 A2 = (   0.0000000000,   5.5818213206,   0.0000000000)
 A3 = (   0.0000000000,   0.0000000000,   5.5807062816)


Analysis of symmetry for initial positions (statically):
=====================================================================
 Subroutine PRICEL returns following result:
 
  LATTYP: Found a body centered tetragonal cell.
 ALAT       =     3.9469437072
 C/A-ratio  =     1.4139310554
  
  Lattice vectors:
  
 A1 = (   2.7909106603,   0.0000000000,   2.7903531408)
 A2 = (  -2.7909106603,   0.0000000000,   2.7903531408)
 A3 = (   0.0000000000,  -2.7909106603,  -2.7903531408)
 
   4 primitive cells build up your supercell.
 

 Routine SETGRP: Setting up the symmetry group for a 
 simple tetragonal supercell.


 Subroutine GETGRP returns: Found 16 space group operations
 (whereof 16 operations were pure point group operations)
 out of a pool of 16 trial point group operations.


The static configuration has the point symmetry D_4h.


Analysis of symmetry for dynamics (positions and initial velocities):
=====================================================================
 Subroutine PRICEL returns following result:
 
  LATTYP: Found a body centered tetragonal cell.
 ALAT       =     3.9469437072
 C/A-ratio  =     1.4139310554
  
  Lattice vectors:
  
 A1 = (   2.7909106603,   0.0000000000,   2.7903531408)
 A2 = (  -2.7909106603,   0.0000000000,   2.7903531408)
 A3 = (   0.0000000000,  -2.7909106603,  -2.7903531408)
 
   4 primitive cells build up your supercell.
 

 Routine SETGRP: Setting up the symmetry group for a 
 simple tetragonal supercell.


 Subroutine GETGRP returns: Found 16 space group operations
 (whereof 16 operations were pure point group operations)
 out of a pool of 16 trial point group operations.


The dynamic configuration has the point symmetry D_4h.


Analysis of structural, dynamic, and magnetic symmetry:
=====================================================================
 Subroutine PRICEL returns following result:
 
  LATTYP: Found a body centered tetragonal cell.
 ALAT       =     3.9469437072
 C/A-ratio  =     1.4139310554
  
  Lattice vectors:
  
 A1 = (   2.7909106603,   0.0000000000,   2.7903531408)
 A2 = (  -2.7909106603,   0.0000000000,   2.7903531408)
 A3 = (   0.0000000000,  -2.7909106603,  -2.7903531408)
 
   4 primitive cells build up your supercell.
 

 Routine SETGRP: Setting up the symmetry group for a 
 simple tetragonal supercell.


 Subroutine GETGRP returns: Found 16 space group operations
 (whereof 16 operations were pure point group operations)
 out of a pool of 16 trial point group operations.


The magnetic configuration has the point symmetry D_4h.


 Subroutine INISYM returns: Found 16 space group operations
 (whereof 16 operations are pure point group operations),
 and found     4 'primitive' translations


----------------------------------------------------------------------------------------

                                     Primitive cell                                     

  volume of cell :      43.4691

  direct lattice vectors                    reciprocal lattice vectors
     2.790910660  0.000000000  2.790353141     0.179152994 -0.179152994  0.179188789
    -2.790910660  0.000000000  2.790353141    -0.179152994 -0.179152994  0.179188789
     0.000000000 -2.790910660 -2.790353141     0.000000000 -0.358305987  0.000000000

  length of vectors
     3.946549501  3.946549501  3.946549501     0.310322755  0.310322755  0.358305987

  position of ions in fractional coordinates (direct lattice)
     0.250000000  0.750000000  0.500000000
     0.750000000  0.250000000  0.500000000
     0.500000000  0.500000000  0.000000000
     0.000000000  0.000000000  0.000000000

  ion indices of the primitive-cell ions
   primitive index   ion index
                 1           1
                 2           5
                 3           9
                 4          13

----------------------------------------------------------------------------------------

 
 
 KPOINTS: Ni7CoMn5CrSn2                           

Automatic generation of k-mesh.
Space group operators:
 irot       det(A)        alpha          n_x          n_y          n_z        tau_x        tau_y        tau_z
    1     1.000000     0.000000     1.000000     0.000000     0.000000     0.000000     0.000000     0.000000
    2    -1.000000     0.000000     1.000000     0.000000     0.000000     0.000000     0.000000     0.000000
    3     1.000000    90.000000     0.000000     0.000000    -1.000000     0.000000     0.000000     0.000000
    4    -1.000000    90.000000     0.000000     0.000000    -1.000000     0.000000     0.000000     0.000000
    5     1.000000   180.000000     0.000000     0.000000     1.000000     0.000000     0.000000     0.000000
    6    -1.000000   180.000000     0.000000     0.000000     1.000000     0.000000     0.000000     0.000000
    7     1.000000    90.000000     0.000000     0.000000     1.000000     0.000000     0.000000     0.000000
    8    -1.000000    90.000000     0.000000     0.000000     1.000000     0.000000     0.000000     0.000000
    9     1.000000   180.000000     0.000000     1.000000     0.000000     0.000000     0.000000     0.000000
   10    -1.000000   180.000000     0.000000     1.000000     0.000000     0.000000     0.000000     0.000000
   11     1.000000   180.000000     0.707107     0.707107     0.000000     0.000000     0.000000     0.000000
   12    -1.000000   180.000000     0.707107     0.707107     0.000000     0.000000     0.000000     0.000000
   13     1.000000   180.000000     1.000000     0.000000     0.000000     0.000000     0.000000     0.000000
   14    -1.000000   180.000000     1.000000     0.000000     0.000000     0.000000     0.000000     0.000000
   15     1.000000   180.000000     0.707107    -0.707107     0.000000     0.000000     0.000000     0.000000
   16    -1.000000   180.000000     0.707107    -0.707107     0.000000     0.000000     0.000000     0.000000
 
 Subroutine IBZKPT returns following result:
 ===========================================
 
 Found     40 irreducible k-points:
 
 Following reciprocal coordinates:
            Coordinates               Weight
  0.062500  0.062500  0.062500      8.000000
  0.187500  0.062500  0.062500     16.000000
  0.312500  0.062500  0.062500     16.000000
  0.437500  0.062500  0.062500     16.000000
  0.187500  0.187500  0.062500      8.000000
  0.312500  0.187500  0.062500     16.000000
  0.437500  0.187500  0.062500     16.000000
  0.312500  0.312500  0.062500      8.000000
  0.437500  0.312500  0.062500     16.000000
  0.437500  0.437500  0.062500      8.000000
  0.062500  0.062500  0.187500      8.000000
  0.187500  0.062500  0.187500     16.000000
  0.312500  0.062500  0.187500     16.000000
  0.437500  0.062500  0.187500     16.000000
  0.187500  0.187500  0.187500      8.000000
  0.312500  0.187500  0.187500     16.000000
  0.437500  0.187500  0.187500     16.000000
  0.312500  0.312500  0.187500      8.000000
  0.437500  0.312500  0.187500     16.000000
  0.437500  0.437500  0.187500      8.000000
  0.062500  0.062500  0.312500      8.000000
  0.187500  0.062500  0.312500     16.000000
  0.312500  0.062500  0.312500     16.000000
  0.437500  0.062500  0.312500     16.000000
  0.187500  0.187500  0.312500      8.000000
  0.312500  0.187500  0.312500     16.000000
  0.437500  0.187500  0.312500     16.000000
  0.312500  0.312500  0.312500      8.000000
  0.437500  0.312500  0.312500     16.000000
  0.437500  0.437500  0.312500      8.000000
  0.062500  0.062500  0.437500      8.000000
  0.187500  0.062500  0.437500     16.000000
  0.312500  0.062500  0.437500     16.000000
  0.437500  0.062500  0.437500     16.000000
  0.187500  0.187500  0.437500      8.000000
  0.312500  0.187500  0.437500     16.000000
  0.437500  0.187500  0.437500     16.000000
  0.312500  0.312500  0.437500      8.000000
  0.437500  0.312500  0.437500     16.000000
  0.437500  0.437500  0.437500      8.000000
 
 Following cartesian coordinates:
            Coordinates               Weight
  0.064943  0.064943  0.064956      8.000000
  0.194829  0.064943  0.064956     16.000000
  0.324715  0.064943  0.064956     16.000000
  0.454601  0.064943  0.064956     16.000000
  0.194829  0.194829  0.064956      8.000000
  0.324715  0.194829  0.064956     16.000000
  0.454601  0.194829  0.064956     16.000000
  0.324715  0.324715  0.064956      8.000000
  0.454601  0.324715  0.064956     16.000000
  0.454601  0.454601  0.064956      8.000000
  0.064943  0.064943  0.194868      8.000000
  0.194829  0.064943  0.194868     16.000000
  0.324715  0.064943  0.194868     16.000000
  0.454601  0.064943  0.194868     16.000000
  0.194829  0.194829  0.194868      8.000000
  0.324715  0.194829  0.194868     16.000000
  0.454601  0.194829  0.194868     16.000000
  0.324715  0.324715  0.194868      8.000000
  0.454601  0.324715  0.194868     16.000000
  0.454601  0.454601  0.194868      8.000000
  0.064943  0.064943  0.324780      8.000000
  0.194829  0.064943  0.324780     16.000000
  0.324715  0.064943  0.324780     16.000000
  0.454601  0.064943  0.324780     16.000000
  0.194829  0.194829  0.324780      8.000000
  0.324715  0.194829  0.324780     16.000000
  0.454601  0.194829  0.324780     16.000000
  0.324715  0.324715  0.324780      8.000000
  0.454601  0.324715  0.324780     16.000000
  0.454601  0.454601  0.324780      8.000000
  0.064943  0.064943  0.454692      8.000000
  0.194829  0.064943  0.454692     16.000000
  0.324715  0.064943  0.454692     16.000000
  0.454601  0.064943  0.454692     16.000000
  0.194829  0.194829  0.454692      8.000000
  0.324715  0.194829  0.454692     16.000000
  0.454601  0.194829  0.454692     16.000000
  0.324715  0.324715  0.454692      8.000000
  0.454601  0.324715  0.454692     16.000000
  0.454601  0.454601  0.454692      8.000000
 


--------------------------------------------------------------------------------------------------------




 Dimension of arrays:
   k-points           NKPTS =     40   k-points in BZ     NKDIM =     40   number of bands    NBANDS=    128
   number of dos      NEDOS =   1500   number of ions     NIONS =     16
   non local maximal  LDIM  =      6   non local SUM 2l+1 LMDIM =     18
   total plane-waves  NPLWV =  74088
   max r-space proj   IRMAX =   5770   max aug-charges    IRDMAX= 114158
   dimension x,y,z NGX =    42 NGY =   42 NGZ =   42
   dimension x,y,z NGXF=    84 NGYF=   84 NGZF=   84
   support grid    NGXF=   168 NGYF=  168 NGZF=  168
   ions per type =               8   4   4
   NGX,Y,Z   is equivalent  to a cutoff of  12.51, 12.51, 12.51 a.u.
   NGXF,Y,Z  is equivalent  to a cutoff of  25.02, 25.02, 25.02 a.u.

 SYSTEM =  NiCoMnGa                                
 POSCAR =  Heusler tetragonSi                      

 Startparameter for this run:
   NWRITE =      2    write-flag & timer
   PREC   = accura    normal or accurate (medium, high low for compatibility)
   ISTART =      0    job   : 0-new  1-cont  2-samecut
   ICHARG =      2    charge: 1-file 2-atom 10-const
   ISPIN  =      2    spin polarized calculation?
   LNONCOLLINEAR =      F non collinear calculations
   LSORBIT =      F    spin-orbit coupling
   INIWAV =      1    electr: 0-lowe 1-rand  2-diag
   LASPH  =      F    aspherical Exc in radial PAW
   METAGGA=      F    non-selfconsistent MetaGGA calc.

 Electronic Relaxation 1
   ENCUT  =  500.0 eV  36.75 Ry    6.06 a.u.  10.18 10.18 10.17*2*pi/ulx,y,z
   ENINI  =  500.0     initial cutoff
   ENAUG  =  578.3 eV  augmentation charge cutoff
   NELM   =    160;   NELMIN=  2; NELMDL= -6     # of ELM steps 
   EDIFF  = 0.1E-05   stopping-criterion for ELM
   LREAL  =      T    real-space projection
   NLSPLINE    = F    spline interpolate recip. space projectors
   LCOMPAT=      F    compatible to vasp.4.4
   GGA_COMPAT  = T    GGA compatible to vasp.4.4-vasp.4.6
   LMAXPAW     = -100 max onsite density
   LMAXMIX     =    6 max onsite mixed and CHGCAR
   VOSKOWN=      0    Vosko Wilk Nusair interpolation
   ROPT   =   -0.00025  -0.00025  -0.00025
 Ionic relaxation
   EDIFFG = -.1E-02   stopping-criterion for IOM
   NSW    =      0    number of steps for IOM
   NBLOCK =      1;   KBLOCK =      1    inner block; outer block 
   IBRION =     -1    ionic relax: 0-MD 1-quasi-New 2-CG
   NFREE  =      1    steps in history (QN), initial steepest desc. (CG)
   ISIF   =      3    stress and relaxation
   IWAVPR =     10    prediction:  0-non 1-charg 2-wave 3-comb
   ISYM   =      2    0-nonsym 1-usesym 2-fastsym
   LCORR  =      T    Harris-Foulkes like correction to forces

   POTIM  = 0.0100    time-step for ionic-motion
   TEIN   =    0.0    initial temperature
   TEBEG  =    0.0;   TEEND  =   0.0 temperature during run
   SMASS  =  -3.00    Nose mass-parameter (am)
   estimated Nose-frequenzy (Omega)   =  0.10E-29 period in steps = 0.63E+48 mass=  -0.712E-27a.u.
   SCALEE = 1.0000    scale energy and forces
   NPACO  =    256;   APACO  = 16.0  distance and # of slots for P.C.
   PSTRESS=    0.0 pullay stress

  Mass of Ions in am
   POMASS =  55.85 58.93 28.09
  Ionic Valenz
   ZVAL   =  14.00 15.00  4.00
  Atomic Wigner-Seitz radii
   RWIGS  =   1.16  1.16  1.16
  virtual crystal weights 
   VCA    =   1.00  1.00  1.00
   NELECT =     188.0000    total number of electrons
   NUPDOWN=      -1.0000    fix difference up-down

 DOS related values:
   EMIN   =  10.00;   EMAX   =-10.00  energy-range for DOS
   EFERMI =   0.00
   ISMEAR =     1;   SIGMA  =   0.10  broadening in eV -4-tet -1-fermi 0-gaus

 Electronic relaxation 2 (details)
   IALGO  =     38    algorithm
   LDIAG  =      T    sub-space diagonalisation (order eigenvalues)
   LSUBROT=      F    optimize rotation matrix (better conditioning)
   TURBO    =      0    0=normal 1=particle mesh
   IRESTART =      0    0=no restart 2=restart with 2 vectors
   NREBOOT  =      0    no. of reboots
   NMIN     =      0    reboot dimension
   EREF     =   0.00    reference energy to select bands
   IMIX   =      4    mixing-type and parameters
     AMIX     =   0.18;   BMIX     =  0.00
     AMIX_MAG =   0.26;   BMIX_MAG =  0.01
     AMIN     =   0.10
     WC   =   100.;   INIMIX=   1;  MIXPRE=   1;  MAXMIX= -45

 Intra band minimization:
   WEIMIN = 0.0000     energy-eigenvalue tresh-hold
   EBREAK =  0.20E-08  absolut break condition
   DEPER  =   0.30     relativ break condition  

   TIME   =   0.40     timestep for ELM

  volume/ion in A,a.u.               =      10.87        73.34
  Fermi-wavevector in a.u.,A,eV,Ry     =   1.680275  3.175260 38.413669  2.823325
  Thomas-Fermi vector in A             =   2.764039
 
 Write flags
   LWAVE        =      F    write WAVECAR
   LDOWNSAMPLE  =      F    k-point downsampling of WAVECAR
   LCHARG       =      T    write CHGCAR
   LVTOT        =      F    write LOCPOT, total local potential
   LVHAR        =      F    write LOCPOT, Hartree potential only
   LELF         =      F    write electronic localiz. function (ELF)
   LORBIT       =     10    0 simple, 1 ext, 2 COOP (PROOUT), +10 PAW based schemes


 Dipole corrections
   LMONO  =      F    monopole corrections only (constant potential shift)
   LDIPOL =      F    correct potential (dipole corrections)
   IDIPOL =      0    1-x, 2-y, 3-z, 4-all directions 
   EPSILON=  1.0000000 bulk dielectric constant

 Exchange correlation treatment:
   GGA     =    --    GGA type
   LEXCH   =     8    internal setting for exchange type
   VOSKOWN=      0    Vosko Wilk Nusair interpolation
   LHFCALC =     F    Hartree Fock is set to
   LHFONE  =     F    Hartree Fock one center treatment
   AEXX    =    0.0000 exact exchange contribution

 Linear response parameters
   LEPSILON=     F    determine dielectric tensor
   LRPA    =     F    only Hartree local field effects (RPA)
   LNABLA  =     F    use nabla operator in PAW spheres
   LVEL    =     F    velocity operator in full k-point grid
   LINTERFAST=   F  fast interpolation
   KINTER  =     0    interpolate to denser k-point grid
   CSHIFT  =0.1000    complex shift for real part using Kramers Kronig
   OMEGAMAX=  -1.0    maximum frequency
   DEG_THRESHOLD= 0.2000000E-02 threshold for treating states as degnerate
   RTIME   =   -0.100 relaxation time in fs
  (WPLASMAI=    0.000 imaginary part of plasma frequency in eV, 0.658/RTIME)
   DFIELD  = 0.0000000 0.0000000 0.0000000 field for delta impulse in time
 
 Orbital magnetization related:
   ORBITALMAG=     F  switch on orbital magnetization
   LCHIMAG   =     F  perturbation theory with respect to B field
   DQ        =  0.001000  dq finite difference perturbation B field
   LLRAUG    =     F  two centre corrections for induced B field



--------------------------------------------------------------------------------------------------------


 Static calculation
 charge density and potential will be updated during run
 spin polarized calculation
 Variant of blocked Davidson
 Davidson routine will perform the subspace rotation
 perform sub-space diagonalisation
    after iterative eigenvector-optimisation
 modified Broyden-mixing scheme, WC =      100.0
 initial mixing is a Kerker type mixing with AMIX =  0.1800 and BMIX =      0.0025
 Hartree-type preconditioning will be used
 using additional bands           34
 real space projection scheme for non local part
 use partial core corrections
 calculate Harris-corrections to forces 
   (improved forces if not selfconsistent)
 use gradient corrections 
 use of overlap-Matrix (Vanderbilt PP)
 Methfessel and Paxton  Order N= 1 SIGMA  =   0.10


--------------------------------------------------------------------------------------------------------


  energy-cutoff  :      500.00
  volume of cell :      173.88
      direct lattice vectors                 reciprocal lattice vectors
     5.581821321  0.000000000  0.000000000     0.179152994  0.000000000  0.000000000
     0.000000000  5.581821321  0.000000000     0.000000000  0.179152994  0.000000000
     0.000000000  0.000000000  5.580706282     0.000000000  0.000000000  0.179188789

  length of vectors
     5.581821321  5.581821321  5.580706282     0.179152994  0.179152994  0.179188789


 
 k-points in units of 2pi/SCALE and weight: Ni7CoMn5CrSn2                           
   0.06494296  0.06494296  0.06495594       0.016
   0.19482888  0.06494296  0.06495594       0.031
   0.32471480  0.06494296  0.06495594       0.031
   0.45460072  0.06494296  0.06495594       0.031
   0.19482888  0.19482888  0.06495594       0.016
   0.32471480  0.19482888  0.06495594       0.031
   0.45460072  0.19482888  0.06495594       0.031
   0.32471480  0.32471480  0.06495594       0.016
   0.45460072  0.32471480  0.06495594       0.031
   0.45460072  0.45460072  0.06495594       0.016
   0.06494296  0.06494296  0.19486781       0.016
   0.19482888  0.06494296  0.19486781       0.031
   0.32471480  0.06494296  0.19486781       0.031
   0.45460072  0.06494296  0.19486781       0.031
   0.19482888  0.19482888  0.19486781       0.016
   0.32471480  0.19482888  0.19486781       0.031
   0.45460072  0.19482888  0.19486781       0.031
   0.32471480  0.32471480  0.19486781       0.016
   0.45460072  0.32471480  0.19486781       0.031
   0.45460072  0.45460072  0.19486781       0.016
   0.06494296  0.06494296  0.32477968       0.016
   0.19482888  0.06494296  0.32477968       0.031
   0.32471480  0.06494296  0.32477968       0.031
   0.45460072  0.06494296  0.32477968       0.031
   0.19482888  0.19482888  0.32477968       0.016
   0.32471480  0.19482888  0.32477968       0.031
   0.45460072  0.19482888  0.32477968       0.031
   0.32471480  0.32471480  0.32477968       0.016
   0.45460072  0.32471480  0.32477968       0.031
   0.45460072  0.45460072  0.32477968       0.016
   0.06494296  0.06494296  0.45469155       0.016
   0.19482888  0.06494296  0.45469155       0.031
   0.32471480  0.06494296  0.45469155       0.031
   0.45460072  0.06494296  0.45469155       0.031
   0.19482888  0.19482888  0.45469155       0.016
   0.32471480  0.19482888  0.45469155       0.031
   0.45460072  0.19482888  0.45469155       0.031
   0.32471480  0.32471480  0.45469155       0.016
   0.45460072  0.32471480  0.45469155       0.031
   0.45460072  0.45460072  0.45469155       0.016
 
 k-points in reciprocal lattice and weights: Ni7CoMn5CrSn2                           
   0.06250000  0.06250000  0.06250000       0.016
   0.18750000  0.06250000  0.06250000       0.031
   0.31250000  0.06250000  0.06250000       0.031
   0.43750000  0.06250000  0.06250000       0.031
   0.18750000  0.18750000  0.06250000       0.016
   0.31250000  0.18750000  0.06250000       0.031
   0.43750000  0.18750000  0.06250000       0.031
   0.31250000  0.31250000  0.06250000       0.016
   0.43750000  0.31250000  0.06250000       0.031
   0.43750000  0.43750000  0.06250000       0.016
   0.06250000  0.06250000  0.18750000       0.016
   0.18750000  0.06250000  0.18750000       0.031
   0.31250000  0.06250000  0.18750000       0.031
   0.43750000  0.06250000  0.18750000       0.031
   0.18750000  0.18750000  0.18750000       0.016
   0.31250000  0.18750000  0.18750000       0.031
   0.43750000  0.18750000  0.18750000       0.031
   0.31250000  0.31250000  0.18750000       0.016
   0.43750000  0.31250000  0.18750000       0.031
   0.43750000  0.43750000  0.18750000       0.016
   0.06250000  0.06250000  0.31250000       0.016
   0.18750000  0.06250000  0.31250000       0.031
   0.31250000  0.06250000  0.31250000       0.031
   0.43750000  0.06250000  0.31250000       0.031
   0.18750000  0.18750000  0.31250000       0.016
   0.31250000  0.18750000  0.31250000       0.031
   0.43750000  0.18750000  0.31250000       0.031
   0.31250000  0.31250000  0.31250000       0.016
   0.43750000  0.31250000  0.31250000       0.031
   0.43750000  0.43750000  0.31250000       0.016
   0.06250000  0.06250000  0.43750000       0.016
   0.18750000  0.06250000  0.43750000       0.031
   0.31250000  0.06250000  0.43750000       0.031
   0.43750000  0.06250000  0.43750000       0.031
   0.18750000  0.18750000  0.43750000       0.016
   0.31250000  0.18750000  0.43750000       0.031
   0.43750000  0.18750000  0.43750000       0.031
   0.31250000  0.31250000  0.43750000       0.016
   0.43750000  0.31250000  0.43750000       0.031
   0.43750000  0.43750000  0.43750000       0.016
 
 position of ions in fractional coordinates (direct lattice) 
   0.25000000  0.25000000  0.25000000
   0.25000000  0.75000000  0.25000000
   0.75000000  0.25000000  0.25000000
   0.75000000  0.75000000  0.25000000
   0.25000000  0.25000000  0.75000000
   0.75000000  0.25000000  0.75000000
   0.25000000  0.75000000  0.75000000
   0.75000000  0.75000000  0.75000000
   0.50000000  0.00000000  0.00000000
   0.00000000  0.50000000  0.00000000
   0.00000000  0.00000000  0.50000000
   0.50000000  0.50000000  0.50000000
   0.50000000  0.00000000  0.50000000
   0.00000000  0.50000000  0.50000000
   0.50000000  0.50000000  0.00000000
   0.00000000  0.00000000  0.00000000
 
 position of ions in cartesian coordinates  (Angst):
   1.39545533  1.39545533  1.39517657
   1.39545533  4.18636599  1.39517657
   4.18636599  1.39545533  1.39517657
   4.18636599  4.18636599  1.39517657
   1.39545533  1.39545533  4.18552971
   4.18636599  1.39545533  4.18552971
   1.39545533  4.18636599  4.18552971
   4.18636599  4.18636599  4.18552971
   2.79091066  0.00000000  0.00000000
   0.00000000  2.79091066  0.00000000
   0.00000000  0.00000000  2.79035314
   2.79091066  2.79091066  2.79035314
   2.79091066  0.00000000  2.79035314
   0.00000000  2.79091066  2.79035314
   2.79091066  2.79091066  0.00000000
   0.00000000  0.00000000  0.00000000
 


--------------------------------------------------------------------------------------------------------


 k-point   1 :   0.0625 0.0625 0.0625  plane waves:    4424
 k-point   2 :   0.1875 0.0625 0.0625  plane waves:    4425
 k-point   3 :   0.3125 0.0625 0.0625  plane waves:    4414
 k-point   4 :   0.4375 0.0625 0.0625  plane waves:    4410
 k-point   5 :   0.1875 0.1875 0.0625  plane waves:    4412
 k-point   6 :   0.3125 0.1875 0.0625  plane waves:    4410
 k-point   7 :   0.4375 0.1875 0.0625  plane waves:    4406
 k-point   8 :   0.3125 0.3125 0.0625  plane waves:    4416
 k-point   9 :   0.4375 0.3125 0.0625  plane waves:    4414
 k-point  10 :   0.4375 0.4375 0.0625  plane waves:    4419
 k-point  11 :   0.0625 0.0625 0.1875  plane waves:    4425
 k-point  12 :   0.1875 0.0625 0.1875  plane waves:    4412
 k-point  13 :   0.3125 0.0625 0.1875  plane waves:    4410
 k-point  14 :   0.4375 0.0625 0.1875  plane waves:    4406
 k-point  15 :   0.1875 0.1875 0.1875  plane waves:    4416
 k-point  16 :   0.3125 0.1875 0.1875  plane waves:    4413
 k-point  17 :   0.4375 0.1875 0.1875  plane waves:    4403
 k-point  18 :   0.3125 0.3125 0.1875  plane waves:    4410
 k-point  19 :   0.4375 0.3125 0.1875  plane waves:    4416
 k-point  20 :   0.4375 0.4375 0.1875  plane waves:    4425
 k-point  21 :   0.0625 0.0625 0.3125  plane waves:    4414
 k-point  22 :   0.1875 0.0625 0.3125  plane waves:    4410
 k-point  23 :   0.3125 0.0625 0.3125  plane waves:    4416
 k-point  24 :   0.4375 0.0625 0.3125  plane waves:    4413
 k-point  25 :   0.1875 0.1875 0.3125  plane waves:    4412
 k-point  26 :   0.3125 0.1875 0.3125  plane waves:    4410
 k-point  27 :   0.4375 0.1875 0.3125  plane waves:    4416
 k-point  28 :   0.3125 0.3125 0.3125  plane waves:    4410
 k-point  29 :   0.4375 0.3125 0.3125  plane waves:    4425
 k-point  30 :   0.4375 0.4375 0.3125  plane waves:    4429
 k-point  31 :   0.0625 0.0625 0.4375  plane waves:    4410
 k-point  32 :   0.1875 0.0625 0.4375  plane waves:    4406
 k-point  33 :   0.3125 0.0625 0.4375  plane waves:    4414
 k-point  34 :   0.4375 0.0625 0.4375  plane waves:    4419
 k-point  35 :   0.1875 0.1875 0.4375  plane waves:    4403
 k-point  36 :   0.3125 0.1875 0.4375  plane waves:    4416
 k-point  37 :   0.4375 0.1875 0.4375  plane waves:    4421
 k-point  38 :   0.3125 0.3125 0.4375  plane waves:    4425
 k-point  39 :   0.4375 0.3125 0.4375  plane waves:    4429
 k-point  40 :   0.4375 0.4375 0.4375  plane waves:    4413

 maximum and minimum number of plane-waves per node :       462      427

 maximum number of plane-waves:      4429
 maximum index in each direction: 
   IXMAX=   10   IYMAX=   10   IZMAX=   10
   IXMIN=  -10   IYMIN=  -10   IZMIN=  -10


 real space projection operators:
  total allocation   :      10038.31 KBytes
  max/ min on nodes  :       1056.12        877.00


 parallel 3D FFT for wavefunctions:
    minimum data exchange during FFTs selected (reduces bandwidth)
 parallel 3D FFT for charge:
    minimum data exchange during FFTs selected (reduces bandwidth)


 total amount of memory used by VASP MPI-rank0    49137. kBytes
=======================================================================

   base      :      30000. kBytes
   nonlr-proj:       2841. kBytes
   fftplans  :       3254. kBytes
   grid      :       2822. kBytes
   one-center:         62. kBytes
   wavefun   :      10158. kBytes
 
     INWAV:  cpu time    0.0000: real time    0.0000
 Broyden mixing: mesh for mixing (old mesh)
   NGX = 21   NGY = 21   NGZ = 21
  (NGX  = 84   NGY  = 84   NGZ  = 84)
  gives a total of   9261 points

 initial charge density was supplied:
 charge density of overlapping atoms calculated
 number of electron     188.0000000 magnetization      23.2000000
 keeping initial charge density in first step


--------------------------------------------------------------------------------------------------------


 Maximum index for non-local projection operator          807
 Maximum index for augmentation-charges         5378 (set IRDMAX)


--------------------------------------------------------------------------------------------------------


 First call to EWALD:  gamma=   0.318
 Maximum number of real-space cells 3x 3x 3
 Maximum number of reciprocal cells 3x 3x 3

    FEWALD:  cpu time    0.0040: real time    0.0015


--------------------------------------- Iteration      1(   1)  ---------------------------------------


    POTLOK:  cpu time    0.0920: real time    0.1511
    SETDIJ:  cpu time    0.0840: real time    0.0844
     EDDAV:  cpu time    8.7805: real time    8.8051
       DOS:  cpu time    0.0040: real time    0.0070
    --------------------------------------------
      LOOP:  cpu time    8.9606: real time    9.0476

 eigenvalue-minimisations  : 20520
 total energy-change (2. order) : 0.2694586E+04  (-0.9024088E+04)
 number of electron     188.0000000 magnetization      23.2000000
 augmentation part      188.0000000 magnetization      23.2000000

 Free energy of the ion-electron system (eV)
  ---------------------------------------------------
  alpha Z        PSCENC =      1266.32876720
  Ewald energy   TEWEN  =    -22256.70779818
  -Hartree energ DENC   =     -8634.08478721
  -exchange      EXHF   =         0.00000000
  -V(xc)+E(xc)   XCENC  =       909.95587053
  PAW double counting   =     25735.45600997   -27176.27888444
  entropy T*S    EENTRO =        -0.00124074
  eigenvalues    EBANDS =       985.80731860
  atomic energy  EATOM  =     31864.11063514
  Solvation  Ediel_sol  =         0.00000000
  ---------------------------------------------------
  free energy    TOTEN  =      2694.58589087 eV

  energy without entropy =     2694.58713161  energy(sigma->0) =     2694.58630445


--------------------------------------------------------------------------------------------------------




--------------------------------------- Iteration      1(   2)  ---------------------------------------


     EDDAV:  cpu time    8.7445: real time    8.7683
       DOS:  cpu time    0.0080: real time    0.0074
    --------------------------------------------
      LOOP:  cpu time    8.7525: real time    8.7757

 eigenvalue-minimisations  : 20480
 total energy-change (2. order) :-0.2462228E+04  (-0.2344278E+04)
 number of electron     188.0000000 magnetization      23.2000000
 augmentation part      188.0000000 magnetization      23.2000000

 Free energy of the ion-electron system (eV)
  ---------------------------------------------------
  alpha Z        PSCENC =      1266.32876720
  Ewald energy   TEWEN  =    -22256.70779818
  -Hartree energ DENC   =     -8634.08478721
  -exchange      EXHF   =         0.00000000
  -V(xc)+E(xc)   XCENC  =       909.95587053
  PAW double counting   =     25735.45600997   -27176.27888444
  entropy T*S    EENTRO =        -0.00008481
  eigenvalues    EBANDS =     -1476.42165418
  atomic energy  EATOM  =     31864.11063514
  Solvation  Ediel_sol  =         0.00000000
  ---------------------------------------------------
  free energy    TOTEN  =       232.35807402 eV

  energy without entropy =      232.35815883  energy(sigma->0) =      232.35810229


--------------------------------------------------------------------------------------------------------




--------------------------------------- Iteration      1(   3)  ---------------------------------------


     EDDAV:  cpu time    8.8446: real time    8.8735
       DOS:  cpu time    0.0080: real time    0.0081
    --------------------------------------------
      LOOP:  cpu time    8.8526: real time    8.8816

 eigenvalue-minimisations  : 20840
 total energy-change (2. order) :-0.3478711E+03  (-0.3090772E+03)
 number of electron     188.0000000 magnetization      23.2000000
 augmentation part      188.0000000 magnetization      23.2000000

 Free energy of the ion-electron system (eV)
  ---------------------------------------------------
  alpha Z        PSCENC =      1266.32876720
  Ewald energy   TEWEN  =    -22256.70779818
  -Hartree energ DENC   =     -8634.08478721
  -exchange      EXHF   =         0.00000000
  -V(xc)+E(xc)   XCENC  =       909.95587053
  PAW double counting   =     25735.45600997   -27176.27888444
  entropy T*S    EENTRO =        -0.00164336
  eigenvalues    EBANDS =     -1824.29118615
  atomic energy  EATOM  =     31864.11063514
  Solvation  Ediel_sol  =         0.00000000
  ---------------------------------------------------
  free energy    TOTEN  =      -115.51301650 eV

  energy without entropy =     -115.51137314  energy(sigma->0) =     -115.51246871


--------------------------------------------------------------------------------------------------------




--------------------------------------- Iteration      1(   4)  ---------------------------------------


     EDDAV:  cpu time    9.2966: real time    9.3255
       DOS:  cpu time    0.0080: real time    0.0082
    --------------------------------------------
      LOOP:  cpu time    9.3046: real time    9.3337

 eigenvalue-minimisations  : 22320
 total energy-change (2. order) :-0.1912263E+02  (-0.1875838E+02)
 number of electron     188.0000000 magnetization      23.2000000
 augmentation part      188.0000000 magnetization      23.2000000

 Free energy of the ion-electron system (eV)
  ---------------------------------------------------
  alpha Z        PSCENC =      1266.32876720
  Ewald energy   TEWEN  =    -22256.70779818
  -Hartree energ DENC   =     -8634.08478721
  -exchange      EXHF   =         0.00000000
  -V(xc)+E(xc)   XCENC  =       909.95587053
  PAW double counting   =     25735.45600997   -27176.27888444
  entropy T*S    EENTRO =        -0.00927699
  eigenvalues    EBANDS =     -1843.40618539
  atomic energy  EATOM  =     31864.11063514
  Solvation  Ediel_sol  =         0.00000000
  ---------------------------------------------------
  free energy    TOTEN  =      -134.63564937 eV

  energy without entropy =     -134.62637237  energy(sigma->0) =     -134.63255704


--------------------------------------------------------------------------------------------------------




--------------------------------------- Iteration      1(   5)  ---------------------------------------


     EDDAV:  cpu time    9.2806: real time    9.3094
       DOS:  cpu time    0.0080: real time    0.0080
    --------------------------------------------
      LOOP:  cpu time    9.2886: real time    9.3174

 eigenvalue-minimisations  : 22304
 total energy-change (2. order) :-0.3560027E+00  (-0.3554060E+00)
 number of electron     188.0000000 magnetization      23.2000000
 augmentation part      188.0000000 magnetization      23.2000000

 Free energy of the ion-electron system (eV)
  ---------------------------------------------------
  alpha Z        PSCENC =      1266.32876720
  Ewald energy   TEWEN  =    -22256.70779818
  -Hartree energ DENC   =     -8634.08478721
  -exchange      EXHF   =         0.00000000
  -V(xc)+E(xc)   XCENC  =       909.95587053
  PAW double counting   =     25735.45600997   -27176.27888444
  entropy T*S    EENTRO =        -0.00935437
  eigenvalues    EBANDS =     -1843.76211068
  atomic energy  EATOM  =     31864.11063514
  Solvation  Ediel_sol  =         0.00000000
  ---------------------------------------------------
  free energy    TOTEN  =      -134.99165203 eV

  energy without entropy =     -134.98229767  energy(sigma->0) =     -134.98853391


--------------------------------------------------------------------------------------------------------




--------------------------------------- Iteration      1(   6)  ---------------------------------------


     EDDAV:  cpu time    9.2806: real time    9.3056
       DOS:  cpu time    0.0080: real time    0.0082
    CHARGE:  cpu time    0.2800: real time    0.2809
    MIXING:  cpu time    0.0000: real time    0.0023
    --------------------------------------------
      LOOP:  cpu time    9.5686: real time    9.5971

 eigenvalue-minimisations  : 22288
 total energy-change (2. order) :-0.1189475E-01  (-0.1189416E-01)
 number of electron     188.0000001 magnetization      22.0868926
 augmentation part       98.4899593 magnetization      17.6656535

 Broyden mixing:
  rms(total) = 0.46829E+01    rms(broyden)= 0.46827E+01
  rms(prec ) = 0.66908E+01
  weight for this iteration     100.00

 Free energy of the ion-electron system (eV)
  ---------------------------------------------------
  alpha Z        PSCENC =      1266.32876720
  Ewald energy   TEWEN  =    -22256.70779818
  -Hartree energ DENC   =     -8634.08478721
  -exchange      EXHF   =         0.00000000
  -V(xc)+E(xc)   XCENC  =       909.95587053
  PAW double counting   =     25735.45600997   -27176.27888444
  entropy T*S    EENTRO =        -0.00935646
  eigenvalues    EBANDS =     -1843.77400334
  atomic energy  EATOM  =     31864.11063514
  Solvation  Ediel_sol  =         0.00000000
  ---------------------------------------------------
  free energy    TOTEN  =      -135.00354678 eV

  energy without entropy =     -134.99419032  energy(sigma->0) =     -135.00042796


--------------------------------------------------------------------------------------------------------




--------------------------------------- Iteration      1(   7)  ---------------------------------------


    POTLOK:  cpu time    0.0600: real time    0.0594
    SETDIJ:  cpu time    0.0680: real time    0.0672
     EDDAV:  cpu time    9.1406: real time    9.1705
       DOS:  cpu time    0.0120: real time    0.0084
    CHARGE:  cpu time    0.2640: real time    0.2678
    MIXING:  cpu time    0.0040: real time    0.0025
    --------------------------------------------
      LOOP:  cpu time    9.5486: real time    9.5759

 eigenvalue-minimisations  : 21928
 total energy-change (2. order) : 0.1534613E+02  (-0.4174133E+01)
 number of electron     188.0000001 magnetization      20.9881336
 augmentation part      105.2247150 magnetization      17.1634527

 Broyden mixing:
  rms(total) = 0.21855E+01    rms(broyden)= 0.21854E+01
  rms(prec ) = 0.29629E+01
  weight for this iteration     100.00

 eigenvalues of (default mixing * dielectric matrix)
  average eigenvalue GAMMA=   1.2114
  1.2114

 Free energy of the ion-electron system (eV)
  ---------------------------------------------------
  alpha Z        PSCENC =      1266.32876720
  Ewald energy   TEWEN  =    -22256.70779818
  -Hartree energ DENC   =     -8328.41142737
  -exchange      EXHF   =         0.00000000
  -V(xc)+E(xc)   XCENC  =       897.95332527
  PAW double counting   =     26221.69027974   -27632.66038120
  entropy T*S    EENTRO =        -0.00171983
  eigenvalues    EBANDS =     -2151.95909713
  atomic energy  EATOM  =     31864.11063514
  Solvation  Ediel_sol  =         0.00000000
  ---------------------------------------------------
  free energy    TOTEN  =      -119.65741635 eV

  energy without entropy =     -119.65569653  energy(sigma->0) =     -119.65684308


--------------------------------------------------------------------------------------------------------




--------------------------------------- Iteration      1(   8)  ---------------------------------------


    POTLOK:  cpu time    0.0600: real time    0.0594
    SETDIJ:  cpu time    0.0640: real time    0.0674
     EDDAV:  cpu time    9.3166: real time    9.3417
       DOS:  cpu time    0.0080: real time    0.0083
    CHARGE:  cpu time    0.2760: real time    0.2771
    MIXING:  cpu time    0.0040: real time    0.0025
    --------------------------------------------
      LOOP:  cpu time    9.7286: real time    9.7563

 eigenvalue-minimisations  : 22544
 total energy-change (2. order) :-0.7141072E+01  (-0.2810941E+01)
 number of electron     188.0000001 magnetization      20.6908843
 augmentation part      105.5564113 magnetization      16.7828577

 Broyden mixing:
  rms(total) = 0.46535E+01    rms(broyden)= 0.46532E+01
  rms(prec ) = 0.80381E+01
  weight for this iteration     100.00

 eigenvalues of (default mixing * dielectric matrix)
  average eigenvalue GAMMA=   0.8172
  1.4388  0.1955

 Free energy of the ion-electron system (eV)
  ---------------------------------------------------
  alpha Z        PSCENC =      1266.32876720
  Ewald energy   TEWEN  =    -22256.70779818
  -Hartree energ DENC   =     -8279.60676818
  -exchange      EXHF   =         0.00000000
  -V(xc)+E(xc)   XCENC  =       895.60820912
  PAW double counting   =     26929.27662305   -28349.34705872
  entropy T*S    EENTRO =        -0.00251508
  eigenvalues    EBANDS =     -2196.45858270
  atomic energy  EATOM  =     31864.11063514
  Solvation  Ediel_sol  =         0.00000000
  ---------------------------------------------------
  free energy    TOTEN  =      -126.79848834 eV

  energy without entropy =     -126.79597327  energy(sigma->0) =     -126.79764999


--------------------------------------------------------------------------------------------------------




--------------------------------------- Iteration      1(   9)  ---------------------------------------


    POTLOK:  cpu time    0.0560: real time    0.0588
    SETDIJ:  cpu time    0.0720: real time    0.0714
     EDDAV:  cpu time    9.1646: real time    9.1929
       DOS:  cpu time    0.0080: real time    0.0083
    CHARGE:  cpu time    0.2680: real time    0.2692
    MIXING:  cpu time    0.0040: real time    0.0022
    --------------------------------------------
      LOOP:  cpu time    9.5726: real time    9.6030

 eigenvalue-minimisations  : 22088
 total energy-change (2. order) : 0.7492135E+01  (-0.8600030E+00)
 number of electron     188.0000001 magnetization      19.6963471
 augmentation part      106.2569756 magnetization      15.9514421

 Broyden mixing:
  rms(total) = 0.16572E+01    rms(broyden)= 0.16571E+01
  rms(prec ) = 0.20110E+01
  weight for this iteration     100.00

 eigenvalues of (default mixing * dielectric matrix)
  average eigenvalue GAMMA=   1.2618
  2.5339  0.9995  0.2519

 Free energy of the ion-electron system (eV)
  ---------------------------------------------------
  alpha Z        PSCENC =      1266.32876720
  Ewald energy   TEWEN  =    -22256.70779818
  -Hartree energ DENC   =     -8255.93179960
  -exchange      EXHF   =         0.00000000
  -V(xc)+E(xc)   XCENC  =       894.69139355
  PAW double counting   =     27220.79370724   -28639.85991891
  entropy T*S    EENTRO =        -0.00511987
  eigenvalues    EBANDS =     -2212.72621997
  atomic energy  EATOM  =     31864.11063514
  Solvation  Ediel_sol  =         0.00000000
  ---------------------------------------------------
  free energy    TOTEN  =      -119.30635341 eV

  energy without entropy =     -119.30123354  energy(sigma->0) =     -119.30464679


--------------------------------------------------------------------------------------------------------




--------------------------------------- Iteration      1(  10)  ---------------------------------------


    POTLOK:  cpu time    0.0600: real time    0.0594
    SETDIJ:  cpu time    0.0640: real time    0.0671
     EDDAV:  cpu time    9.3406: real time    9.3672
       DOS:  cpu time    0.0080: real time    0.0084
    CHARGE:  cpu time    0.2680: real time    0.2692
    MIXING:  cpu time    0.0040: real time    0.0030
    --------------------------------------------
      LOOP:  cpu time    9.7446: real time    9.7744

 eigenvalue-minimisations  : 22656
 total energy-change (2. order) :-0.2286711E-01  (-0.1173797E+00)
 number of electron     188.0000001 magnetization      18.3484328
 augmentation part      106.2324561 magnetization      14.9708342

 Broyden mixing:
  rms(total) = 0.80601E+00    rms(broyden)= 0.80585E+00
  rms(prec ) = 0.87384E+00
  weight for this iteration     100.00

 eigenvalues of (default mixing * dielectric matrix)
  average eigenvalue GAMMA=   1.8335
  5.1259  1.0510  0.9111  0.2463

 Free energy of the ion-electron system (eV)
  ---------------------------------------------------
  alpha Z        PSCENC =      1266.32876720
  Ewald energy   TEWEN  =    -22256.70779818
  -Hartree energ DENC   =     -8236.32160588
  -exchange      EXHF   =         0.00000000
  -V(xc)+E(xc)   XCENC  =       893.61591599
  PAW double counting   =     28620.74272424   -30055.82266275
  entropy T*S    EENTRO =        -0.00609435
  eigenvalues    EBANDS =     -2215.26910192
  atomic energy  EATOM  =     31864.11063514
  Solvation  Ediel_sol  =         0.00000000
  ---------------------------------------------------
  free energy    TOTEN  =      -119.32922052 eV

  energy without entropy =     -119.32312617  energy(sigma->0) =     -119.32718907


--------------------------------------------------------------------------------------------------------




--------------------------------------- Iteration      1(  11)  ---------------------------------------


    POTLOK:  cpu time    0.0600: real time    0.0597
    SETDIJ:  cpu time    0.0680: real time    0.0679
     EDDAV:  cpu time    9.2846: real time    9.3154
       DOS:  cpu time    0.0080: real time    0.0083
    CHARGE:  cpu time    0.2680: real time    0.2677
    MIXING:  cpu time    0.0040: real time    0.0027
    --------------------------------------------
      LOOP:  cpu time    9.6926: real time    9.7217

 eigenvalue-minimisations  : 22456
 total energy-change (2. order) :-0.1073916E+00  (-0.6119597E-01)
 number of electron     188.0000001 magnetization      18.4631127
 augmentation part      106.2182306 magnetization      15.3461599

 Broyden mixing:
  rms(total) = 0.38933E+00    rms(broyden)= 0.38923E+00
  rms(prec ) = 0.47656E+00
  weight for this iteration     100.00

 eigenvalues of (default mixing * dielectric matrix)
  average eigenvalue GAMMA=   1.6463
  4.9491  0.2467  1.1452  1.1452  0.7452

 Free energy of the ion-electron system (eV)
  ---------------------------------------------------
  alpha Z        PSCENC =      1266.32876720
  Ewald energy   TEWEN  =    -22256.70779818
  -Hartree energ DENC   =     -8206.88968206
  -exchange      EXHF   =         0.00000000
  -V(xc)+E(xc)   XCENC  =       892.22350049
  PAW double counting   =     30397.92760579   -31852.41809726
  entropy T*S    EENTRO =        -0.01163999
  eigenvalues    EBANDS =     -2223.99990321
  atomic energy  EATOM  =     31864.11063514
  Solvation  Ediel_sol  =         0.00000000
  ---------------------------------------------------
  free energy    TOTEN  =      -119.43661208 eV

  energy without entropy =     -119.42497209  energy(sigma->0) =     -119.43273208


--------------------------------------------------------------------------------------------------------




--------------------------------------- Iteration      1(  12)  ---------------------------------------


    POTLOK:  cpu time    0.0560: real time    0.0593
    SETDIJ:  cpu time    0.0720: real time    0.0706
     EDDAV:  cpu time    9.0286: real time    9.0568
       DOS:  cpu time    0.0080: real time    0.0083
    CHARGE:  cpu time    0.2720: real time    0.2723
    MIXING:  cpu time    0.0040: real time    0.0023
    --------------------------------------------
      LOOP:  cpu time    9.4406: real time    9.4695

 eigenvalue-minimisations  : 21592
 total energy-change (2. order) : 0.9277354E-02  (-0.4214792E-02)
 number of electron     188.0000001 magnetization      18.3220786
 augmentation part      106.2567011 magnetization      15.2172396

 Broyden mixing:
  rms(total) = 0.31023E+00    rms(broyden)= 0.31023E+00
  rms(prec ) = 0.35742E+00
  weight for this iteration     100.00

 eigenvalues of (default mixing * dielectric matrix)
  average eigenvalue GAMMA=   2.1281
  5.7044  3.6135  0.2466  1.2019  1.2019  0.8002

 Free energy of the ion-electron system (eV)
  ---------------------------------------------------
  alpha Z        PSCENC =      1266.32876720
  Ewald energy   TEWEN  =    -22256.70779818
  -Hartree energ DENC   =     -8206.64986702
  -exchange      EXHF   =         0.00000000
  -V(xc)+E(xc)   XCENC  =       892.31153820
  PAW double counting   =     30244.22229062   -31698.08482281
  entropy T*S    EENTRO =        -0.01187826
  eigenvalues    EBANDS =     -2224.94619961
  atomic energy  EATOM  =     31864.11063514
  Solvation  Ediel_sol  =         0.00000000
  ---------------------------------------------------
  free energy    TOTEN  =      -119.42733472 eV

  energy without entropy =     -119.41545646  energy(sigma->0) =     -119.42337530


--------------------------------------------------------------------------------------------------------




--------------------------------------- Iteration      1(  13)  ---------------------------------------


    POTLOK:  cpu time    0.0560: real time    0.0590
    SETDIJ:  cpu time    0.0680: real time    0.0674
     EDDAV:  cpu time    9.3806: real time    9.4093
       DOS:  cpu time    0.0080: real time    0.0083
    CHARGE:  cpu time    0.2720: real time    0.2721
    MIXING:  cpu time    0.0040: real time    0.0025
    --------------------------------------------
      LOOP:  cpu time    9.7886: real time    9.8186

 eigenvalue-minimisations  : 22792
 total energy-change (2. order) :-0.1281967E-01  (-0.5475620E-02)
 number of electron     188.0000001 magnetization      18.1690508
 augmentation part      106.2042348 magnetization      15.1893820

 Broyden mixing:
  rms(total) = 0.14023E+00    rms(broyden)= 0.14019E+00
  rms(prec ) = 0.14232E+00
  weight for this iteration     100.00

 eigenvalues of (default mixing * dielectric matrix)
  average eigenvalue GAMMA=   2.0975
  6.4367  3.8570  0.2466  1.4821  1.1621  0.7489  0.7489

 Free energy of the ion-electron system (eV)
  ---------------------------------------------------
  alpha Z        PSCENC =      1266.32876720
  Ewald energy   TEWEN  =    -22256.70779818
  -Hartree energ DENC   =     -8204.93529266
  -exchange      EXHF   =         0.00000000
  -V(xc)+E(xc)   XCENC  =       892.41852695
  PAW double counting   =     30293.16888716   -31751.59107133
  entropy T*S    EENTRO =        -0.00854743
  eigenvalues    EBANDS =     -2222.22426125
  atomic energy  EATOM  =     31864.11063514
  Solvation  Ediel_sol  =         0.00000000
  ---------------------------------------------------
  free energy    TOTEN  =      -119.44015439 eV

  energy without entropy =     -119.43160696  energy(sigma->0) =     -119.43730525


--------------------------------------------------------------------------------------------------------




--------------------------------------- Iteration      1(  14)  ---------------------------------------


    POTLOK:  cpu time    0.0600: real time    0.0598
    SETDIJ:  cpu time    0.0680: real time    0.0698
     EDDAV:  cpu time    9.3686: real time    9.3969
       DOS:  cpu time    0.0080: real time    0.0082
    CHARGE:  cpu time    0.2680: real time    0.2702
    MIXING:  cpu time    0.0040: real time    0.0025
    --------------------------------------------
      LOOP:  cpu time    9.7766: real time    9.8074

 eigenvalue-minimisations  : 22728
 total energy-change (2. order) :-0.6756863E-02  (-0.1420519E-02)
 number of electron     188.0000001 magnetization      17.7711835
 augmentation part      106.1955431 magnetization      14.8170432

 Broyden mixing:
  rms(total) = 0.12428E+00    rms(broyden)= 0.12427E+00
  rms(prec ) = 0.13228E+00
  weight for this iteration     100.00

 eigenvalues of (default mixing * dielectric matrix)
  average eigenvalue GAMMA=   2.2952
  6.5003  3.7978  3.7978  0.2466  0.8040  1.1374  1.0389  1.0389

 Free energy of the ion-electron system (eV)
  ---------------------------------------------------
  alpha Z        PSCENC =      1266.32876720
  Ewald energy   TEWEN  =    -22256.70779818
  -Hartree energ DENC   =     -8203.64234580
  -exchange      EXHF   =         0.00000000
  -V(xc)+E(xc)   XCENC  =       892.33945212
  PAW double counting   =     30323.34084577   -31782.65536864
  entropy T*S    EENTRO =        -0.00686308
  eigenvalues    EBANDS =     -2222.55423578
  atomic energy  EATOM  =     31864.11063514
  Solvation  Ediel_sol  =         0.00000000
  ---------------------------------------------------
  free energy    TOTEN  =      -119.44691125 eV

  energy without entropy =     -119.44004817  energy(sigma->0) =     -119.44462356


--------------------------------------------------------------------------------------------------------




--------------------------------------- Iteration      1(  15)  ---------------------------------------


    POTLOK:  cpu time    0.0600: real time    0.0590
    SETDIJ:  cpu time    0.0640: real time    0.0677
     EDDAV:  cpu time    9.1086: real time    9.1334
       DOS:  cpu time    0.0080: real time    0.0083
    CHARGE:  cpu time    0.2720: real time    0.2753
    MIXING:  cpu time    0.0040: real time    0.0032
    --------------------------------------------
      LOOP:  cpu time    9.5166: real time    9.5469

 eigenvalue-minimisations  : 21680
 total energy-change (2. order) :-0.7682603E-02  (-0.1711900E-02)
 number of electron     188.0000001 magnetization      17.6164926
 augmentation part      106.2480419 magnetization      14.6944478

 Broyden mixing:
  rms(total) = 0.60617E-01    rms(broyden)= 0.60606E-01
  rms(prec ) = 0.66040E-01
  weight for this iteration     100.00

 eigenvalues of (default mixing * dielectric matrix)
  average eigenvalue GAMMA=   2.6360
  8.9860  4.8305  4.3994  0.2466  1.2344  1.1540  1.1540  0.8171  0.9016

 Free energy of the ion-electron system (eV)
  ---------------------------------------------------
  alpha Z        PSCENC =      1266.32876720
  Ewald energy   TEWEN  =    -22256.70779818
  -Hartree energ DENC   =     -8202.54421970
  -exchange      EXHF   =         0.00000000
  -V(xc)+E(xc)   XCENC  =       892.02364689
  PAW double counting   =     30250.62209324   -31707.66627058
  entropy T*S    EENTRO =        -0.00495537
  eigenvalues    EBANDS =     -2225.61649249
  atomic energy  EATOM  =     31864.11063514
  Solvation  Ediel_sol  =         0.00000000
  ---------------------------------------------------
  free energy    TOTEN  =      -119.45459386 eV

  energy without entropy =     -119.44963848  energy(sigma->0) =     -119.45294206


--------------------------------------------------------------------------------------------------------




--------------------------------------- Iteration      1(  16)  ---------------------------------------


    POTLOK:  cpu time    0.0600: real time    0.0592
    SETDIJ:  cpu time    0.0720: real time    0.0713
     EDDAV:  cpu time    9.2126: real time    9.2411
       DOS:  cpu time    0.0080: real time    0.0082
    CHARGE:  cpu time    0.2680: real time    0.2701
    MIXING:  cpu time    0.0000: real time    0.0012
    --------------------------------------------
      LOOP:  cpu time    9.6206: real time    9.6511

 eigenvalue-minimisations  : 22168
 total energy-change (2. order) :-0.1470047E-02  (-0.3049175E-03)
 number of electron     188.0000001 magnetization      17.6057968
 augmentation part      106.2113555 magnetization      14.6928919

 Broyden mixing:
  rms(total) = 0.33162E-01    rms(broyden)= 0.33151E-01
  rms(prec ) = 0.42764E-01
  weight for this iteration     100.00

 eigenvalues of (default mixing * dielectric matrix)
  average eigenvalue GAMMA=   2.5204
  6.7399  5.4261  4.4008  3.3128  0.2466  1.2265  1.0463  1.0463  0.8135  0.9455

 Free energy of the ion-electron system (eV)
  ---------------------------------------------------
  alpha Z        PSCENC =      1266.32876720
  Ewald energy   TEWEN  =    -22256.70779818
  -Hartree energ DENC   =     -8204.09021535
  -exchange      EXHF   =         0.00000000
  -V(xc)+E(xc)   XCENC  =       892.03943067
  PAW double counting   =     30234.96393746   -31692.30470542
  entropy T*S    EENTRO =        -0.00464900
  eigenvalues    EBANDS =     -2223.79146643
  atomic energy  EATOM  =     31864.11063514
  Solvation  Ediel_sol  =         0.00000000
  ---------------------------------------------------
  free energy    TOTEN  =      -119.45606390 eV

  energy without entropy =     -119.45141490  energy(sigma->0) =     -119.45451424


--------------------------------------------------------------------------------------------------------




--------------------------------------- Iteration      1(  17)  ---------------------------------------


    POTLOK:  cpu time    0.0600: real time    0.0593
    SETDIJ:  cpu time    0.0680: real time    0.0684
     EDDAV:  cpu time    9.0926: real time    9.1170
       DOS:  cpu time    0.0080: real time    0.0083
    CHARGE:  cpu time    0.2720: real time    0.2745
    MIXING:  cpu time    0.0040: real time    0.0035
    --------------------------------------------
      LOOP:  cpu time    9.5046: real time    9.5310

 eigenvalue-minimisations  : 21840
 total energy-change (2. order) : 0.3511873E-03  (-0.2068091E-03)
 number of electron     188.0000001 magnetization      17.5350300
 augmentation part      106.2151094 magnetization      14.6169855

 Broyden mixing:
  rms(total) = 0.25340E-01    rms(broyden)= 0.25340E-01
  rms(prec ) = 0.26479E-01
  weight for this iteration     100.00

 eigenvalues of (default mixing * dielectric matrix)
  average eigenvalue GAMMA=   2.4824
  6.9945  6.9945  3.7457  3.7457  0.2466  1.2196  1.0531  1.0531  0.8135  0.9337
  0.5058

 Free energy of the ion-electron system (eV)
  ---------------------------------------------------
  alpha Z        PSCENC =      1266.32876720
  Ewald energy   TEWEN  =    -22256.70779818
  -Hartree energ DENC   =     -8204.22225125
  -exchange      EXHF   =         0.00000000
  -V(xc)+E(xc)   XCENC  =       892.06641125
  PAW double counting   =     30209.24422312   -31666.51026500
  entropy T*S    EENTRO =        -0.00459796
  eigenvalues    EBANDS =     -2223.76083703
  atomic energy  EATOM  =     31864.11063514
  Solvation  Ediel_sol  =         0.00000000
  ---------------------------------------------------
  free energy    TOTEN  =      -119.45571272 eV

  energy without entropy =     -119.45111475  energy(sigma->0) =     -119.45418006


--------------------------------------------------------------------------------------------------------




--------------------------------------- Iteration      1(  18)  ---------------------------------------


    POTLOK:  cpu time    0.0600: real time    0.0595
    SETDIJ:  cpu time    0.0640: real time    0.0670
     EDDAV:  cpu time    9.3686: real time    9.3949
       DOS:  cpu time    0.0080: real time    0.0083
    CHARGE:  cpu time    0.2720: real time    0.2716
    MIXING:  cpu time    0.0000: real time    0.0027
    --------------------------------------------
      LOOP:  cpu time    9.7726: real time    9.8040

 eigenvalue-minimisations  : 22752
 total energy-change (2. order) :-0.3134306E-03  (-0.2916909E-04)
 number of electron     188.0000001 magnetization      17.4714889
 augmentation part      106.2186827 magnetization      14.5555829

 Broyden mixing:
[...]
  0.000   0.000  -0.007   0.000  -0.000   0.000  -0.000   0.000   0.004   0.000   0.000   0.000  -1.397   0.000   0.000   0.000
 -0.000   0.000  -0.000   0.000  -0.007   0.000   0.000   0.000   0.000   0.000   0.004   0.000   0.000   0.000  -1.397   0.000
  0.000   0.000  -0.000   0.000  -0.000   0.000  -0.000   0.000   0.000   0.000   0.000   0.000  -0.000   0.000   0.000   0.000
 -0.007   0.000   0.000   0.000  -0.000   0.000   0.004   0.000  -0.000   0.000   0.000   0.000   0.000   0.000   0.000   0.000
  0.000   0.000   0.000   0.000   0.000   0.000  -0.000   0.000  -0.000   0.000  -0.000   0.000   0.000   0.000  -0.000   0.000
  0.000   0.000   0.000   0.000  -0.000   0.000   0.000   0.000   0.000   0.000  -0.000   0.000  -0.000   0.000  -0.000   0.000
  0.000   0.000   0.000   0.000  -0.000   0.000   0.000   0.000   0.000   0.000  -0.000   0.000  -0.000   0.000  -0.000   0.000
 pseudopotential strength for first ion, spin component:           2
-42.261   0.000   0.000   0.000   0.000   0.000   6.464   0.000  -0.000   0.000  -0.000   0.000   0.000   0.000  -0.000   0.000
  0.000   0.000 -42.261   0.000   0.000   0.000  -0.000   0.000   6.464   0.000  -0.000   0.000   0.009   0.000  -0.000   0.000
  0.000   0.000   0.000   0.000 -42.261   0.000  -0.000   0.000  -0.000   0.000   6.464   0.000  -0.000   0.000   0.009   0.000
  6.464   0.000  -0.000   0.000  -0.000   0.000   5.924   0.000  -0.000   0.000  -0.000   0.000  -0.000   0.000   0.000   0.000
 -0.000   0.000   6.464   0.000  -0.000   0.000  -0.000   0.000   5.924   0.000  -0.000   0.000  -0.004   0.000   0.000   0.000
 -0.000   0.000  -0.000   0.000   6.464   0.000  -0.000   0.000  -0.000   0.000   5.924   0.000   0.000   0.000  -0.004   0.000
  0.000   0.000   0.009   0.000  -0.000   0.000  -0.000   0.000  -0.004   0.000   0.000   0.000   0.090   0.000   0.000   0.000
 -0.000   0.000  -0.000   0.000   0.009   0.000   0.000   0.000   0.000   0.000  -0.004   0.000   0.000   0.000   0.090   0.000
  0.000   0.000  -0.000   0.000  -0.000   0.000  -0.000   0.000   0.000   0.000   0.000   0.000  -0.000   0.000   0.000   0.000
  0.009   0.000   0.000   0.000  -0.000   0.000  -0.004   0.000  -0.000   0.000   0.000   0.000   0.000   0.000   0.000   0.000
  0.000   0.000   0.000   0.000   0.000   0.000  -0.000   0.000  -0.000   0.000  -0.000   0.000   0.000   0.000  -0.000   0.000
  0.000   0.000   0.009   0.000  -0.000   0.000  -0.000   0.000  -0.004   0.000   0.000   0.000  -0.460   0.000   0.000   0.000
 -0.000   0.000  -0.000   0.000   0.009   0.000   0.000   0.000   0.000   0.000  -0.004   0.000   0.000   0.000  -0.460   0.000
  0.000   0.000  -0.000   0.000  -0.000   0.000  -0.000   0.000   0.000   0.000   0.000   0.000  -0.000   0.000   0.000   0.000
  0.009   0.000   0.000   0.000  -0.000   0.000  -0.004   0.000  -0.000   0.000   0.000   0.000   0.000   0.000   0.000   0.000
  0.000   0.000   0.000   0.000   0.000   0.000  -0.000   0.000  -0.000   0.000  -0.000   0.000   0.000   0.000  -0.000   0.000
  0.000   0.000   0.000   0.000  -0.000   0.000   0.000   0.000   0.000   0.000  -0.000   0.000  -0.000   0.000  -0.000   0.000
  0.000   0.000   0.000   0.000  -0.000   0.000   0.000   0.000   0.000   0.000  -0.000   0.000  -0.000   0.000  -0.000   0.000
 total augmentation occupancy for first ion, spin component:           1
  1.993   0.000   0.000  -0.021  -0.000   0.000  -0.000   0.000  -0.000   0.003  -0.000  -0.000  -0.000  -0.000  -0.003   0.000
  0.000   1.993   0.000  -0.000  -0.021   0.000   0.003  -0.000   0.000  -0.000   0.000  -0.003  -0.000  -0.000  -0.000  -0.000
  0.000   0.000   1.993   0.000  -0.000  -0.021  -0.000   0.003  -0.000   0.000   0.000   0.000  -0.003  -0.000  -0.000  -0.000
 -0.021   0.000  -0.000   0.210   0.000   0.000  -0.000   0.000  -0.000   0.046  -0.000  -0.000   0.000  -0.000  -0.035   0.000
  0.000  -0.021  -0.000  -0.000   0.211   0.000   0.046  -0.000  -0.000   0.000   0.000  -0.035   0.000   0.000  -0.000  -0.000
  0.000   0.000  -0.021  -0.000  -0.000   0.210  -0.000   0.046  -0.000   0.000   0.000  -0.000  -0.035   0.000   0.000   0.000
 -0.000   0.003  -0.000  -0.000   0.046  -0.000   2.297   0.000   0.000   0.000  -0.000  -1.543   0.000  -0.000   0.000   0.000
  0.000   0.000   0.003   0.000  -0.000   0.046  -0.000   2.297   0.000  -0.000  -0.000  -0.000  -1.543  -0.000   0.000  -0.000
  0.000  -0.000   0.000  -0.000   0.000   0.000  -0.000   0.000   2.080   0.000   0.000  -0.000   0.000  -1.416  -0.000  -0.000
  0.003   0.000   0.000   0.046  -0.000   0.000  -0.000   0.000   0.000   2.297   0.000   0.000   0.000   0.000  -1.543  -0.000
 -0.000   0.000   0.000   0.000   0.000   0.000  -0.000  -0.000   0.000   0.000   2.081   0.000   0.000   0.000  -0.000  -1.416
  0.000  -0.003   0.000  -0.000  -0.035  -0.000  -1.543  -0.000   0.000   0.000  -0.000   2.235  -0.000   0.000  -0.000  -0.000
 -0.000  -0.000  -0.003   0.000   0.000  -0.035   0.000  -1.543  -0.000  -0.000   0.000  -0.000   2.235  -0.000   0.000   0.000
 -0.000  -0.000  -0.000   0.000  -0.000  -0.000  -0.000  -0.000  -1.416  -0.000   0.000   0.000  -0.000   1.966  -0.000  -0.000
 -0.003   0.000  -0.000  -0.035  -0.000  -0.000  -0.000  -0.000   0.000  -1.543  -0.000  -0.000   0.000  -0.000   2.235  -0.000
  0.000  -0.000  -0.000  -0.000   0.000  -0.000   0.000  -0.000   0.000  -0.000  -1.416  -0.000  -0.000  -0.000   0.000   1.966
  0.000   0.000   0.000   0.000   0.000   0.000   0.000  -0.000  -0.000  -0.000  -0.000  -0.000   0.000   0.000   0.000  -0.000
  0.000   0.000   0.000   0.000   0.000   0.000   0.000  -0.000  -0.000   0.000   0.000  -0.000  -0.000   0.000  -0.000  -0.000
 total augmentation occupancy for first ion, spin component:           2
 -0.001   0.000   0.000  -0.005  -0.000   0.000   0.000  -0.000   0.000   0.006  -0.000  -0.000  -0.000  -0.000  -0.007  -0.000
  0.000  -0.001   0.000   0.000  -0.005  -0.000   0.006  -0.000   0.000   0.000  -0.000  -0.007  -0.000  -0.000   0.000   0.000
  0.000   0.000  -0.001   0.000   0.000  -0.005  -0.000   0.006   0.000  -0.000   0.000  -0.000  -0.007   0.000  -0.000  -0.000
 -0.005   0.000   0.000  -0.005   0.000   0.000   0.000  -0.000  -0.000  -0.040   0.000  -0.000  -0.000   0.000   0.008  -0.000
  0.000  -0.005   0.000   0.000  -0.005   0.000  -0.040  -0.000   0.000   0.000   0.000   0.008  -0.000   0.000  -0.000   0.000
  0.000  -0.000  -0.005   0.000  -0.000  -0.005   0.000  -0.040   0.000   0.000   0.000   0.000   0.008   0.000   0.000  -0.000
  0.000   0.006   0.000   0.000  -0.040   0.000   0.887  -0.000  -0.000   0.000  -0.000  -0.214  -0.000  -0.000   0.000  -0.000
 -0.000  -0.000   0.006  -0.000  -0.000  -0.040  -0.000   0.887  -0.000   0.000   0.000  -0.000  -0.214   0.000   0.000  -0.000
 -0.000   0.000   0.000   0.000  -0.000  -0.000  -0.000   0.000   1.276  -0.000   0.000  -0.000  -0.000  -0.363   0.000  -0.000
  0.006  -0.000  -0.000  -0.040  -0.000  -0.000  -0.000   0.000  -0.000   0.887   0.000   0.000  -0.000   0.000  -0.214   0.000
 -0.000   0.000   0.000   0.000  -0.000  -0.000   0.000   0.000   0.000   0.000   1.277  -0.000   0.000  -0.000  -0.000  -0.364
  0.000  -0.007  -0.000   0.000   0.008  -0.000  -0.214  -0.000  -0.000  -0.000  -0.000  -0.175   0.000  -0.000  -0.000  -0.000
 -0.000   0.000  -0.007  -0.000  -0.000   0.008   0.000  -0.214  -0.000   0.000   0.000   0.000  -0.175  -0.000  -0.000  -0.000
 -0.000  -0.000  -0.000   0.000   0.000   0.000   0.000  -0.000  -0.363  -0.000   0.000   0.000  -0.000  -0.118   0.000  -0.000
 -0.007   0.000  -0.000   0.008  -0.000   0.000   0.000   0.000   0.000  -0.214   0.000   0.000  -0.000  -0.000  -0.175  -0.000
 -0.000   0.000  -0.000  -0.000  -0.000  -0.000   0.000  -0.000  -0.000  -0.000  -0.364   0.000  -0.000  -0.000   0.000  -0.118
  0.000   0.000   0.000   0.000   0.000   0.000   0.000  -0.000  -0.000  -0.000  -0.000   0.000   0.000   0.000  -0.000   0.000
  0.000   0.000   0.000   0.000   0.000   0.000  -0.000  -0.000  -0.000   0.000   0.000  -0.000   0.000   0.000  -0.000   0.000


------------------------ aborting loop because EDIFF is reached ----------------------------------------


 


 total charge     
 
# of ion       s       p       d       tot
------------------------------------------
    1        0.344   6.398   6.266  13.008
    2        0.344   6.398   6.266  13.008
    3        0.344   6.398   6.266  13.008
    4        0.344   6.398   6.266  13.008
    5        0.344   6.398   6.266  13.008
    6        0.344   6.398   6.266  13.008
    7        0.344   6.398   6.266  13.008
    8        0.344   6.398   6.266  13.008
    9        0.486   6.538   7.302  14.325
   10        0.486   6.538   7.302  14.325
   11        0.486   6.538   7.302  14.325
   12        0.486   6.538   7.302  14.325
   13        0.718   0.891   0.000   1.608
   14        0.718   0.891   0.000   1.608
   15        0.718   0.891   0.000   1.608
   16        0.718   0.891   0.000   1.608
--------------------------------------------------
tot          7.567  80.895  79.339 167.800
 


 magnetization (x)
 
# of ion       s       p       d       tot
------------------------------------------
    1       -0.005  -0.012   1.426   1.409
    2       -0.005  -0.012   1.426   1.409
    3       -0.005  -0.012   1.426   1.409
    4       -0.005  -0.012   1.426   1.409
    5       -0.005  -0.012   1.426   1.409
    6       -0.005  -0.012   1.426   1.409
    7       -0.005  -0.012   1.426   1.409
    8       -0.005  -0.012   1.426   1.409
    9       -0.013  -0.030   1.743   1.700
   10       -0.013  -0.030   1.743   1.700
   11       -0.013  -0.030   1.743   1.700
   12       -0.013  -0.030   1.743   1.700
   13       -0.005  -0.038   0.000  -0.042
   14       -0.005  -0.038   0.000  -0.042
   15       -0.005  -0.038   0.000  -0.042
   16       -0.005  -0.038   0.000  -0.042
--------------------------------------------------
tot         -0.110  -0.367  18.381  17.904
 
    CHARGE:  cpu time    0.6080: real time    0.6315
    FORLOC:  cpu time    0.0000: real time    0.0016
    FORNL :  cpu time    1.3081: real time    1.3133
    STRESS:  cpu time    4.0002: real time    4.0136
    FORCOR:  cpu time    0.0560: real time    0.0543
    FORHAR:  cpu time    0.0080: real time    0.0083
    MIXING:  cpu time    0.0000: real time    0.0015
    OFIELD:  cpu time    0.0000: real time    0.0000

  FORCE on cell =-STRESS in cart. coord.  units (eV):
  Direction    XX          YY          ZZ          XY          YZ          ZX
  --------------------------------------------------------------------------------------
  Alpha Z  1266.32877  1266.32877  1266.32877
  Ewald   -7418.96597 -7418.96597 -7418.83990     0.00000     0.00000     0.00000
  Hartree  2734.61411  2734.61411  2734.66977    -0.00000    -0.00000    -0.00000
  E(xc)   -1168.67182 -1168.67182 -1168.67141    -0.00000     0.00000     0.00000
  Local    1331.76336  1331.76336  1331.57724    -0.00000    -0.00000    -0.00000
  n-local  -216.36668  -219.35085  -217.84277    -1.03093    -1.39639    -0.68309
  augment  1695.15722  1695.15722  1695.15049     0.00000     0.00000     0.00000
  Kinetic  1773.90767  1781.21474  1777.56317     0.38719    -0.92060     1.69123
  Fock        0.00000     0.00000     0.00000     0.00000     0.00000     0.00000
  -------------------------------------------------------------------------------------
  Total      -0.07189    -0.07189    -0.06465     0.00000    -0.00000     0.00000
  in kB      -0.66244    -0.66244    -0.59568     0.00000    -0.00000     0.00000
  external pressure =       -0.64 kB  Pullay stress =        0.00 kB


 VOLUME and BASIS-vectors are now :
 -----------------------------------------------------------------------------
  energy-cutoff  :      500.00
  volume of cell :      173.88
      direct lattice vectors                 reciprocal lattice vectors
     5.581821321  0.000000000  0.000000000     0.179152994  0.000000000  0.000000000
     0.000000000  5.581821321  0.000000000     0.000000000  0.179152994  0.000000000
     0.000000000  0.000000000  5.580706282     0.000000000  0.000000000  0.179188789

  length of vectors
     5.581821321  5.581821321  5.580706282     0.179152994  0.179152994  0.179188789


 FORCES acting on ions
    electron-ion (+dipol)            ewald-force                    non-local-force                 convergence-correction
 -----------------------------------------------------------------------------------------------
   0.122E-11 0.372E-12 0.371E-12   -.142E-13 0.568E-13 -.426E-13   0.867E-17 0.954E-17 0.607E-17   -.860E-13 0.174E-13 0.106E-12
   0.281E-12 0.134E-12 0.233E-11   -.853E-13 0.142E-13 -.213E-13   -.781E-17 0.304E-17 0.520E-17   -.732E-12 0.146E-12 -.777E-12
   0.216E-11 0.829E-11 0.832E-11   -.568E-13 0.142E-13 -.213E-13   0.607E-17 -.737E-17 0.954E-17   0.174E-12 0.130E-12 -.762E-12
   0.281E-11 0.330E-11 0.129E-10   0.142E-13 0.568E-13 -.426E-13   -.260E-17 0.304E-17 0.520E-17   0.663E-12 0.948E-13 0.952E-13
   0.280E-12 0.234E-11 0.146E-12   -.114E-12 0.142E-13 -.568E-13   0.607E-17 -.737E-17 0.954E-17   -.743E-12 0.721E-13 -.143E-12
   0.277E-11 0.130E-10 0.328E-11   -.142E-13 0.568E-13 -.497E-13   0.520E-17 0.607E-17 0.607E-17   0.694E-12 0.971E-13 0.668E-12
   0.122E-11 -.147E-11 -.145E-11   -.426E-13 0.568E-13 -.497E-13   0.781E-17 0.130E-17 -.694E-17   -.750E-13 0.980E-13 0.700E-12
   0.212E-11 0.123E-10 0.123E-10   -.853E-13 0.142E-13 -.568E-13   -.954E-17 -.130E-17 -.867E-17   0.149E-12 0.153E-12 -.132E-12
   0.192E-11 -.982E-13 0.933E-14   0.622E-13 -.221E-13 0.133E-12   0.414E-24 0.103E-24 -.620E-24   -.184E-12 -.148E-12 0.188E-13
   0.564E-13 0.197E-11 0.886E-14   0.111E-13 -.142E-13 0.472E-13   0.414E-24 -.517E-24 -.414E-24   -.245E-12 -.276E-12 0.215E-13
   0.552E-13 -.986E-13 0.195E-11   0.228E-13 -.578E-13 0.178E-12   0.103E-24 -.258E-24 -.620E-24   -.292E-12 -.164E-12 -.306E-12
   0.192E-11 0.122E-11 0.120E-11   0.509E-13 -.214E-13 0.178E-12   0.620E-24 -.310E-24 -.414E-24   -.176E-12 -.230E-12 -.300E-12
   -.697E-13 -.643E-13 0.727E-12   0.486E-13 -.506E-13 -.114E-13   0.000E+00 0.103E-24 -.827E-24   0.352E-13 0.172E-13 -.272E-14
   -.433E-13 -.274E-13 -.572E-13   0.459E-13 -.477E-13 -.424E-14   0.000E+00 -.207E-24 -.414E-24   0.445E-14 -.295E-14 -.302E-14
   -.708E-13 0.753E-12 -.545E-13   0.493E-13 -.473E-13 -.517E-15   0.000E+00 -.207E-24 -.414E-24   0.393E-13 0.186E-14 0.404E-13
   -.437E-13 -.629E-13 -.549E-13   0.467E-13 -.503E-13 0.660E-14   -.827E-24 -.207E-24 -.517E-24   0.979E-14 0.162E-13 0.414E-13
 -----------------------------------------------------------------------------------------------
   0.166E-10 0.418E-10 0.420E-10   -.604E-13 -.272E-13 0.184E-12   0.139E-16 0.694E-17 0.260E-16   -.764E-12 0.225E-13 -.734E-12
 
 
 POSITION                                       TOTAL-FORCE (eV/Angst)
 -----------------------------------------------------------------------------------
      1.39546      1.39546      1.39518        -0.000000     -0.000000      0.000000
      1.39546      4.18637      1.39518        -0.000000     -0.000000     -0.000000
      4.18637      1.39546      1.39518         0.000000     -0.000000     -0.000000
      4.18637      4.18637      1.39518         0.000000      0.000000      0.000000
      1.39546      1.39546      4.18553        -0.000000     -0.000000     -0.000000
      4.18637      1.39546      4.18553         0.000000     -0.000000     -0.000000
      1.39546      4.18637      4.18553        -0.000000      0.000000      0.000000
      4.18637      4.18637      4.18553         0.000000     -0.000000      0.000000
      2.79091      0.00000      0.00000         0.000000      0.000000      0.000000
      0.00000      2.79091      0.00000         0.000000      0.000000      0.000000
      0.00000      0.00000      2.79035         0.000000      0.000000      0.000000
      2.79091      2.79091      2.79035         0.000000      0.000000      0.000000
      2.79091      0.00000      2.79035         0.000000      0.000000      0.000000
      0.00000      2.79091      2.79035         0.000000      0.000000      0.000000
      2.79091      2.79091      0.00000         0.000000      0.000000      0.000000
      0.00000      0.00000      0.00000         0.000000      0.000000      0.000000
 -----------------------------------------------------------------------------------
    total drift:                                0.000000      0.000000      0.000000


--------------------------------------------------------------------------------------------------------



  FREE ENERGIE OF THE ION-ELECTRON SYSTEM (eV)
  ---------------------------------------------------
  free  energy   TOTEN  =      -119.45615054 eV

  energy  without entropy=     -119.45173646  energy(sigma->0) =     -119.45467918
 


--------------------------------------------------------------------------------------------------------


    POTLOK:  cpu time    0.1320: real time    0.1298


--------------------------------------------------------------------------------------------------------


     LOOP+:  cpu time  213.8094: real time  214.8493
    4ORBIT:  cpu time    0.0000: real time    0.0000
 


 total charge     
 
# of ion       s       p       d       tot
------------------------------------------
    1        0.344   6.398   6.266  13.008
    2        0.344   6.398   6.266  13.008
    3        0.344   6.398   6.266  13.008
    4        0.344   6.398   6.266  13.008
    5        0.344   6.398   6.266  13.008
    6        0.344   6.398   6.266  13.008
    7        0.344   6.398   6.266  13.008
    8        0.344   6.398   6.266  13.008
    9        0.486   6.538   7.302  14.325
   10        0.486   6.538   7.302  14.325
   11        0.486   6.538   7.302  14.325
   12        0.486   6.538   7.302  14.325
   13        0.718   0.891   0.000   1.608
   14        0.718   0.891   0.000   1.608
   15        0.718   0.891   0.000   1.608
   16        0.718   0.891   0.000   1.608
--------------------------------------------------
tot          7.567  80.895  79.339 167.800
 


 magnetization (x)
 
# of ion       s       p       d       tot
------------------------------------------
    1       -0.005  -0.012   1.426   1.409
    2       -0.005  -0.012   1.426   1.409
    3       -0.005  -0.012   1.426   1.409
    4       -0.005  -0.012   1.426   1.409
    5       -0.005  -0.012   1.426   1.409
    6       -0.005  -0.012   1.426   1.409
    7       -0.005  -0.012   1.426   1.409
    8       -0.005  -0.012   1.426   1.409
    9       -0.013  -0.030   1.743   1.700
   10       -0.013  -0.030   1.743   1.700
   11       -0.013  -0.030   1.743   1.700
   12       -0.013  -0.030   1.743   1.700
   13       -0.005  -0.038   0.000  -0.042
   14       -0.005  -0.038   0.000  -0.042
   15       -0.005  -0.038   0.000  -0.042
   16       -0.005  -0.038   0.000  -0.042
--------------------------------------------------
tot         -0.110  -0.367  18.381  17.904
 

 total amount of memory used by VASP MPI-rank0    49137. kBytes
=======================================================================

   base      :      30000. kBytes
   nonlr-proj:       2841. kBytes
   fftplans  :       3254. kBytes
   grid      :       2822. kBytes
   one-center:         62. kBytes
   wavefun   :      10158. kBytes
 
  
  
 General timing and accounting informations for this job:
 ========================================================
  
                  Total CPU time used (sec):      224.594
                            User time (sec):      223.186
                          System time (sec):        1.408
                         Elapsed time (sec):      226.916
  
                   Maximum memory used (kb):     1097508.
                   Average memory used (kb):           0.
  
                          Minor page faults:       275348
                          Major page faults:            0
                 Voluntary context switches:         3751
