 vasp.6.2.0 18Jan21 (build Feb 24 2021 14:57:03) complex                        
  
 executed on             LinuxIFC date 2023.06.13  13:34:14
 running on   24 total cores
 distrk:  each k-point on   24 cores,    1 groups
 distr:  one band on NCORE=   6 cores,    4 groups


--------------------------------------------------------------------------------------------------------


 INCAR:
   SYSTEM = NiCoMnGa
   LCHARG = .TRUE.
   LWAVE = .FALSE.
   ICHARG = 2
   IBRION = 2
   ISIF = 3
   PREC = Accurate
   ENCUT = 500
   LREAL = A
   POTIM = 0.005
   EDIFF = 1e-6
   ISMEAR = 1
   SIGMA = 0.1
   ISPIN = 2
   LORBIT = 10
   ISYM = 2
   RWIGS = 8*1.164 4*1.302 4*1.217
   MAGMOM = 8*2.3 4*1.2 4*0
   NSW = 0
   NEDOS = 1500
   GGA_COMPAT = .TRUE.
   LMAXMIX = 6
   NELMDL = -6
   NELM = 160
   ADDGRID = .TRUE.
   NPAR = 4
   NCORE = 6
   AMIX = 0.18
   AMIX_MAG = 0.26
   BMIX = 0.0025
   BMIX_MAG = 0.005
   EDIFFG = -3E-3

 POTCAR:    PAW_PBE Fe_pv 02Aug2007               
 POTCAR:    PAW_PBE Co_pv 23Apr2009               
 POTCAR:    PAW_PBE Ge 05Jan2001                  
 POTCAR:    PAW_PBE Fe_pv 02Aug2007               
   VRHFIN =Fe:  3pd7s1                                                                              
   LEXCH  = PE                                                                                      
   EATOM  =  2457.4239 eV,  180.6156 Ry                                                             
                                                                                                    
   TITEL  = PAW_PBE Fe_pv 02Aug2007                                                                 
   LULTRA =        F    use ultrasoft PP ?                                                          
   IUNSCR =        1    unscreen: 0-lin 1-nonlin 2-no                                               
   RPACOR =    1.750    partial core radius                                                         
   POMASS =   55.847; ZVAL   =   14.000    mass and valenz                                          
   RCORE  =    2.200    outmost cutoff radius                                                       
   RWIGS  =    2.200; RWIGS  =    1.164    wigner-seitz radius (au A)                               
   ENMAX  =  293.238; ENMIN  =  219.928 eV                                                          
   ICORE  =        3    local potential                                                             
   LCOR   =        T    correct aug charges                                                         
   LPAW   =        T    paw PP                                                                      
   EAUG   =  578.342                                                                                
   DEXC   =    0.000                                                                                
   RMAX   =    2.249    core radius for proj-oper                                                   
   RAUG   =    1.300    factor for augmentation sphere                                              
   RDEP   =    2.296    radius for radial grids                                                     
   RDEPT  =    1.766    core radius for aug-charge                                                  
                                                                                                    
   Atomic configuration                                                                             
    8 entries                                                                                       
     n  l   j            E        occ.                                                              
     1  0  0.50     -6993.8440   2.0000                                                             
     2  0  0.50      -814.6047   2.0000                                                             
     2  1  1.50      -693.3689   6.0000                                                             
     3  0  0.50       -89.4732   2.0000                                                             
     3  1  1.50       -55.6373   6.0000                                                             
     3  2  2.50        -3.8151   7.0000                                                             
     4  0  0.50        -4.2551   1.0000                                                             
     4  3  2.50        -1.3606   0.0000                                                             
   Description                                                                                      
     l       E           TYP  RCUT    TYP  RCUT                                                     
     1    -55.6372668     23  2.000                                                                 
     1     -5.4423304     23  2.000                                                                 
     2     -3.8151096     23  2.200                                                                 
     2     -5.1756922     23  2.200                                                                 
     0     -4.2550951     23  2.200                                                                 
     0     27.2116520     23  2.200                                                                 
     3     -1.3605826     23  2.200                                                                 
  local pseudopotential read in
  partial core-charges read in
  partial kinetic energy density read in
  atomic valenz-charges read in
  non local Contribution for L=           1  read in
    real space projection operators read in
  non local Contribution for L=           1  read in
    real space projection operators read in
  non local Contribution for L=           2  read in
    real space projection operators read in
  non local Contribution for L=           2  read in
    real space projection operators read in
  non local Contribution for L=           0  read in
    real space projection operators read in
  non local Contribution for L=           0  read in
    real space projection operators read in
    PAW grid and wavefunctions read in
 
   number of l-projection  operators is LMAX  =           6
   number of lm-projection operators is LMMAX =          18
 
 POTCAR:    PAW_PBE Co_pv 23Apr2009               
   VRHFIN =Co: 3pd7s1                                                                               
   LEXCH  = PE                                                                                      
   EATOM  =  2948.1334 eV,  216.6817 Ry                                                             
                                                                                                    
   TITEL  = PAW_PBE Co_pv 23Apr2009                                                                 
   LULTRA =        F    use ultrasoft PP ?                                                          
   IUNSCR =        1    unscreen: 0-lin 1-nonlin 2-no                                               
   RPACOR =    2.000    partial core radius                                                         
   POMASS =   58.933; ZVAL   =   15.000    mass and valenz                                          
   RCORE  =    2.300    outmost cutoff radius                                                       
   RWIGS  =    2.460; RWIGS  =    1.302    wigner-seitz radius (au A)                               
   ENMAX  =  271.042; ENMIN  =  203.281 eV                                                          
   ICORE  =        3    local potential                                                             
   LCOR   =        T    correct aug charges                                                         
   LPAW   =        T    paw PP                                                                      
   EAUG   =  543.066                                                                                
   DEXC   =    0.000                                                                                
   RMAX   =    2.360    core radius for proj-oper                                                   
   RAUG   =    1.300    factor for augmentation sphere                                              
   RDEP   =    2.393    radius for radial grids                                                     
   RDEPT  =    1.841    core radius for aug-charge                                                  
                                                                                                    
   Atomic configuration                                                                             
    8 entries                                                                                       
     n  l   j            E        occ.                                                              
     1  0  0.50     -7587.6674   2.0000                                                             
     2  0  0.50      -893.6084   2.0000                                                             
     2  1  1.50      -764.5805   6.0000                                                             
     3  0  0.50       -97.5973   2.0000                                                             
     3  1  1.50       -60.9648   6.0000                                                             
     3  2  2.50        -4.2382   8.0000                                                             
     4  0  0.50        -4.3746   1.0000                                                             
     4  3  2.50        -1.3606   0.0000                                                             
   Description                                                                                      
     l       E           TYP  RCUT    TYP  RCUT                                                     
     1    -60.9647990     23  2.000                                                                 
     1     -5.4423304     23  2.000                                                                 
     2     -4.2382362     23  2.300                                                                 
     2     -5.5988188     23  2.300                                                                 
     0     -4.3745797     23  2.300                                                                 
     0      5.7660125     23  2.300                                                                 
     3     -1.3605826     23  2.300                                                                 
  local pseudopotential read in
  partial core-charges read in
  partial kinetic energy density read in
  atomic valenz-charges read in
  non local Contribution for L=           1  read in
    real space projection operators read in
  non local Contribution for L=           1  read in
    real space projection operators read in
  non local Contribution for L=           2  read in
    real space projection operators read in
  non local Contribution for L=           2  read in
    real space projection operators read in
  non local Contribution for L=           0  read in
    real space projection operators read in
  non local Contribution for L=           0  read in
    real space projection operators read in
    PAW grid and wavefunctions read in
 
   number of l-projection  operators is LMAX  =           6
   number of lm-projection operators is LMMAX =          18
 
 POTCAR:    PAW_PBE Ge 05Jan2001                  
   VRHFIN =Ge: s2p2                                                                                 
   LEXCH  = PE                                                                                      
   EATOM  =   104.9960 eV,    7.7170 Ry                                                             
                                                                                                    
   TITEL  = PAW_PBE Ge 05Jan2001                                                                    
   LULTRA =        F    use ultrasoft PP ?                                                          
   IUNSCR =        1    unscreen: 0-lin 1-nonlin 2-no                                               
   RPACOR =    2.170    partial core radius                                                         
   POMASS =   72.610; ZVAL   =    4.000    mass and valenz                                          
   RCORE  =    2.300    outmost cutoff radius                                                       
   RWIGS  =    2.300; RWIGS  =    1.217    wigner-seitz radius (au A)                               
   ENMAX  =  173.807; ENMIN  =  130.355 eV                                                          
   ICORE  =        3    local potential                                                             
   LCOR   =        T    correct aug charges                                                         
   LPAW   =        T    paw PP                                                                      
   EAUG   =  385.843                                                                                
   DEXC   =    0.000                                                                                
   RMAX   =    2.342    core radius for proj-oper                                                   
   RAUG   =    1.300    factor for augmentation sphere                                              
   RDEP   =    2.318    radius for radial grids                                                     
   RDEPT  =    2.103    core radius for aug-charge                                                  
                                                                                                    
   Atomic configuration                                                                             
   10 entries                                                                                       
     n  l   j            E        occ.                                                              
     1  0  0.50    -10959.8463   2.0000                                                             
     2  0  0.50     -1371.6056   2.0000                                                             
     2  1  1.50     -1198.4791   6.0000                                                             
     3  0  0.50      -168.4733   2.0000                                                             
     3  1  1.50      -115.6019   6.0000                                                             
     3  2  2.50       -29.3106  10.0000                                                             
     4  0  0.50       -11.7309   2.0000                                                             
     4  1  0.50        -3.8952   2.0000                                                             
     4  2  1.50        -4.0817   0.0000                                                             
     4  3  2.50        -4.0817   0.0000                                                             
   Description                                                                                      
     l       E           TYP  RCUT    TYP  RCUT                                                     
     0    -11.7309493     23  2.300                                                                 
     0     -7.4578696     23  2.300                                                                 
     1     -3.8952261     23  2.300                                                                 
     1      6.1178114     23  2.300                                                                 
     2     -4.0817478     23  2.300                                                                 
     3     -1.3605826      7  2.300                                                                 
  local pseudopotential read in
  partial core-charges read in
  partial kinetic energy density read in
  atomic valenz-charges read in
  non local Contribution for L=           0  read in
    real space projection operators read in
  non local Contribution for L=           0  read in
    real space projection operators read in
  non local Contribution for L=           1  read in
    real space projection operators read in
  non local Contribution for L=           1  read in
    real space projection operators read in
  non local Contribution for L=           2  read in
    real space projection operators read in
    PAW grid and wavefunctions read in
 
   number of l-projection  operators is LMAX  =           5
   number of lm-projection operators is LMMAX =          13
 
 Optimization of the real space projectors (new method)

 maximal supplied QI-value         = 17.01
 optimisation between [QCUT,QGAM] = [ 11.40, 22.79] = [ 36.36,145.44] Ry 
 Optimized for a Real-space Cutoff    1.47 Angstroem

   l    n(q)    QCUT    max X(q) W(low)/X(q) W(high)/X(q)  e(spline) 
   1     10    11.395     4.267    0.90E-04    0.11E-03    0.18E-06
   1     10    11.395     5.750    0.14E-03    0.15E-03    0.25E-06
   2      9    11.395    53.656    0.13E-03    0.36E-04    0.15E-06
   2      9    11.395    49.521    0.14E-03    0.36E-04    0.15E-06
   0     10    11.395    31.246    0.58E-04    0.17E-05    0.98E-07
   0     10    11.395    12.201    0.41E-04    0.11E-05    0.82E-07
 Optimization of the real space projectors (new method)

 maximal supplied QI-value         = 16.25
 optimisation between [QCUT,QGAM] = [ 11.38, 22.75] = [ 36.24,144.96] Ry 
 Optimized for a Real-space Cutoff    1.47 Angstroem

   l    n(q)    QCUT    max X(q) W(low)/X(q) W(high)/X(q)  e(spline) 
   1     10    11.376     4.946    0.88E-04    0.16E-03    0.15E-06
   1     10    11.376     5.991    0.13E-03    0.24E-03    0.21E-06
   2      9    11.376    46.947    0.87E-04    0.91E-04    0.20E-06
   2      9    11.376    42.928    0.91E-04    0.94E-04    0.20E-06
   0     10    11.376    68.324    0.58E-04    0.21E-04    0.82E-07
   0     10    11.376    36.926    0.52E-04    0.19E-04    0.78E-07
 Optimization of the real space projectors (new method)

 maximal supplied QI-value         = 16.25
 optimisation between [QCUT,QGAM] = [ 11.38, 22.75] = [ 36.24,144.96] Ry 
 Optimized for a Real-space Cutoff    1.31 Angstroem

   l    n(q)    QCUT    max X(q) W(low)/X(q) W(high)/X(q)  e(spline) 
   0      9    11.376    65.336    0.20E-03    0.13E-03    0.49E-07
   0      9    11.376    52.220    0.20E-03    0.13E-03    0.49E-07
   1      8    11.376    36.409    0.18E-03    0.14E-03    0.15E-06
   1      8    11.376    21.334    0.18E-03    0.13E-03    0.15E-06
   2      8    11.376     4.673    0.22E-03    0.16E-03    0.38E-07
  PAW_PBE Fe_pv 02Aug2007               :
 energy of atom  1       EATOM=-2457.4239
 kinetic energy error for atom=    0.0069 (will be added to EATOM!!)
  PAW_PBE Co_pv 23Apr2009               :
 energy of atom  2       EATOM=-2948.1334
 kinetic energy error for atom=    0.0060 (will be added to EATOM!!)
  PAW_PBE Ge 05Jan2001                  :
 energy of atom  3       EATOM= -104.9960
 kinetic energy error for atom=    0.0002 (will be added to EATOM!!)
 
 
 POSCAR: Heusler tetragonGa
  positions in direct lattice
  velocities in cartesian coordinates
 exchange correlation table for  LEXCH =        8
   RHO(1)=    0.500       N(1)  =     2000
   RHO(2)=  100.500       N(2)  =     4000
 


--------------------------------------------------------------------------------------------------------


 ion  position               nearest neighbor table
   1  0.000  0.500  0.500-   5 2.46   6 2.46   7 2.46   8 2.46  13 2.49  14 2.49  15 2.49  16 2.49

   2  0.000  0.000  0.500-   5 2.46   6 2.46   7 2.46   8 2.46  13 2.49  14 2.49  15 2.49  16 2.49

   3  0.500  0.500  0.500-   5 2.46   6 2.46   7 2.46   8 2.46  13 2.49  14 2.49  15 2.49  16 2.49

   4  0.500  0.000  0.500-   5 2.46   6 2.46   7 2.46   8 2.46  13 2.49  14 2.49  15 2.49  16 2.49

   5  0.250  0.750  0.256-   1 2.46   2 2.46   3 2.46   4 2.46   9 2.50  10 2.50  11 2.50  12 2.50

   6  0.750  0.250  0.256-   1 2.46   2 2.46   3 2.46   4 2.46   9 2.50  10 2.50  11 2.50  12 2.50

   7  0.250  0.250  0.744-   1 2.46   2 2.46   3 2.46   4 2.46   9 2.50  10 2.50  11 2.50  12 2.50

   8  0.750  0.750  0.744-   1 2.46   2 2.46   3 2.46   4 2.46   9 2.50  10 2.50  11 2.50  12 2.50

   9  0.500  0.500  0.000-  13 2.46  14 2.46  15 2.46  16 2.46   5 2.50   6 2.50   7 2.50   8 2.50

  10  0.000  0.000  0.000-  13 2.46  14 2.46  15 2.46  16 2.46   5 2.50   6 2.50   7 2.50   8 2.50

  11  0.500  0.000  0.000-  13 2.46  14 2.46  15 2.46  16 2.46   5 2.50   6 2.50   7 2.50   8 2.50

  12  0.000  0.500  0.000-  13 2.46  14 2.46  15 2.46  16 2.46   5 2.50   6 2.50   7 2.50   8 2.50

  13  0.250  0.250  0.246-   9 2.46  10 2.46  11 2.46  12 2.46   1 2.49   2 2.49   3 2.49   4 2.49

  14  0.250  0.750  0.754-   9 2.46  10 2.46  11 2.46  12 2.46   1 2.49   2 2.49   3 2.49   4 2.49

  15  0.750  0.750  0.246-   9 2.46  10 2.46  11 2.46  12 2.46   1 2.49   2 2.49   3 2.49   4 2.49

  16  0.750  0.250  0.754-   9 2.46  10 2.46  11 2.46  12 2.46   1 2.49   2 2.49   3 2.49   4 2.49

 
  LATTYP: Found a simple tetragonal cell.
 ALAT       =     5.6918778666
 C/A-ratio  =     1.0145921337
  
  Lattice vectors:
  
 A1 = (   5.6918778666,   0.0000000000,   0.0000000000)
 A2 = (   0.0000000000,   5.6918778666,   0.0000000000)
 A3 = (   0.0000000000,   0.0000000000,   5.7749345093)


Analysis of symmetry for initial positions (statically):
=====================================================================
 Subroutine PRICEL returns following result:
 
  LATTYP: Found a simple tetragonal cell.
 ALAT       =     4.0247654371
 C/A-ratio  =     1.4348499557
  
  Lattice vectors:
  
 A1 = (   2.8459389333,  -2.8459389333,   0.0000000000)
 A2 = (   2.8459389333,   2.8459389333,   0.0000000000)
 A3 = (   0.0000000000,   0.0000000000,   5.7749345093)
 
   2 primitive cells build up your supercell.
 

 Routine SETGRP: Setting up the symmetry group for a 
 simple tetragonal supercell.


 Subroutine GETGRP returns: Found 16 space group operations
 (whereof  8 operations were pure point group operations)
 out of a pool of 16 trial point group operations.


The static configuration has the point symmetry D_2d.
 The point group associated with its full space group is D_4h.


Analysis of symmetry for dynamics (positions and initial velocities):
=====================================================================
 Subroutine PRICEL returns following result:
 
  LATTYP: Found a simple tetragonal cell.
 ALAT       =     4.0247654371
 C/A-ratio  =     1.4348499557
  
  Lattice vectors:
  
 A1 = (   2.8459389333,  -2.8459389333,   0.0000000000)
 A2 = (   2.8459389333,   2.8459389333,   0.0000000000)
 A3 = (   0.0000000000,   0.0000000000,   5.7749345093)
 
   2 primitive cells build up your supercell.
 

 Routine SETGRP: Setting up the symmetry group for a 
 simple tetragonal supercell.


 Subroutine GETGRP returns: Found 16 space group operations
 (whereof  8 operations were pure point group operations)
 out of a pool of 16 trial point group operations.


The dynamic configuration has the point symmetry D_2d.
 The point group associated with its full space group is D_4h.


Analysis of structural, dynamic, and magnetic symmetry:
=====================================================================
 Subroutine PRICEL returns following result:
 
  LATTYP: Found a simple tetragonal cell.
 ALAT       =     4.0247654371
 C/A-ratio  =     1.4348499557
  
  Lattice vectors:
  
 A1 = (   2.8459389333,  -2.8459389333,   0.0000000000)
 A2 = (   2.8459389333,   2.8459389333,   0.0000000000)
 A3 = (   0.0000000000,   0.0000000000,   5.7749345093)
 
   2 primitive cells build up your supercell.
 

 Routine SETGRP: Setting up the symmetry group for a 
 simple tetragonal supercell.


 Subroutine GETGRP returns: Found 16 space group operations
 (whereof  8 operations were pure point group operations)
 out of a pool of 16 trial point group operations.


The overall configuration has the point symmetry D_2d.
 The point group associated with its full space group is D_4h.


 Subroutine INISYM returns: Found 16 space group operations
 (whereof  8 operations are pure point group operations),
 and found     2 'primitive' translations


----------------------------------------------------------------------------------------

                                     Primitive cell                                     

  volume of cell :      93.5466

  direct lattice vectors                    reciprocal lattice vectors
     2.845938933 -2.845938933  0.000000000     0.175688942 -0.175688942  0.000000000
     2.845938933  2.845938933  0.000000000     0.175688942  0.175688942  0.000000000
     0.000000000  0.000000000  5.774934509     0.000000000  0.000000000  0.173162137

  length of vectors
     4.024765437  4.024765437  5.774934509     0.248461684  0.248461684  0.173162137

  position of ions in fractional coordinates (direct lattice)
     0.500000000  0.500000000  0.500000000
     0.000000000  0.000000000  0.500000000
     0.500000000  0.000000000  0.256486932
     0.000000000  0.500000000  0.743513068
     0.000000000  0.000000000  0.000000000
     0.500000000  0.500000000  0.000000000
     0.000000000  0.500000000  0.246053371
     0.500000000  0.000000000  0.753946629

  ion indices of the primitive-cell ions
   primitive index   ion index
                 1           1
                 2           2
                 3           5
                 4           7
                 5           9
                 6          12
                 7          13
                 8          14

----------------------------------------------------------------------------------------

 
 
 KPOINTS: Ni7CoMn5CrSn2                           

Automatic generation of k-mesh.
 Grid dimensions read from file:
 generate k-points for:   15   15   15

 Generating k-lattice:

  Cartesian coordinates                     Fractional coordinates (reciprocal lattice)
     0.011712596  0.000000000  0.000000000     0.066666667  0.000000000  0.000000000
     0.000000000  0.011712596  0.000000000     0.000000000  0.066666667  0.000000000
     0.000000000  0.000000000  0.011544142     0.000000000  0.000000000  0.066666667

  Length of vectors
     0.011712596  0.011712596  0.011544142

  Shift w.r.t. Gamma in fractional coordinates (k-lattice)
     0.000000000  0.000000000  0.000000000

 
 Subroutine IBZKPT returns following result:
 ===========================================
 
 Found    288 irreducible k-points:
 
 Following reciprocal coordinates:
            Coordinates               Weight
  0.000000  0.000000  0.000000      1.000000
  0.066667  0.000000  0.000000      4.000000
  0.133333  0.000000  0.000000      4.000000
  0.200000  0.000000  0.000000      4.000000
  0.266667  0.000000  0.000000      4.000000
  0.333333  0.000000  0.000000      4.000000
  0.400000  0.000000  0.000000      4.000000
  0.466667  0.000000  0.000000      4.000000
  0.066667  0.066667  0.000000      4.000000
  0.133333  0.066667  0.000000      8.000000
  0.200000  0.066667  0.000000      8.000000
  0.266667  0.066667  0.000000      8.000000
  0.333333  0.066667  0.000000      8.000000
  0.400000  0.066667  0.000000      8.000000
  0.466667  0.066667  0.000000      8.000000
  0.133333  0.133333  0.000000      4.000000
  0.200000  0.133333  0.000000      8.000000
  0.266667  0.133333  0.000000      8.000000
  0.333333  0.133333  0.000000      8.000000
  0.400000  0.133333  0.000000      8.000000
  0.466667  0.133333  0.000000      8.000000
  0.200000  0.200000  0.000000      4.000000
  0.266667  0.200000  0.000000      8.000000
  0.333333  0.200000  0.000000      8.000000
  0.400000  0.200000  0.000000      8.000000
  0.466667  0.200000  0.000000      8.000000
  0.266667  0.266667  0.000000      4.000000
  0.333333  0.266667  0.000000      8.000000
  0.400000  0.266667  0.000000      8.000000
  0.466667  0.266667  0.000000      8.000000
  0.333333  0.333333  0.000000      4.000000
  0.400000  0.333333  0.000000      8.000000
  0.466667  0.333333  0.000000      8.000000
  0.400000  0.400000  0.000000      4.000000
  0.466667  0.400000  0.000000      8.000000
  0.466667  0.466667  0.000000      4.000000
  0.000000  0.000000  0.066667      2.000000
  0.066667  0.000000  0.066667      8.000000
  0.133333  0.000000  0.066667      8.000000
  0.200000  0.000000  0.066667      8.000000
  0.266667  0.000000  0.066667      8.000000
  0.333333  0.000000  0.066667      8.000000
  0.400000  0.000000  0.066667      8.000000
  0.466667  0.000000  0.066667      8.000000
  0.066667  0.066667  0.066667      8.000000
  0.133333  0.066667  0.066667     16.000000
  0.200000  0.066667  0.066667     16.000000
  0.266667  0.066667  0.066667     16.000000
  0.333333  0.066667  0.066667     16.000000
  0.400000  0.066667  0.066667     16.000000
  0.466667  0.066667  0.066667     16.000000
  0.133333  0.133333  0.066667      8.000000
  0.200000  0.133333  0.066667     16.000000
  0.266667  0.133333  0.066667     16.000000
  0.333333  0.133333  0.066667     16.000000
  0.400000  0.133333  0.066667     16.000000
  0.466667  0.133333  0.066667     16.000000
  0.200000  0.200000  0.066667      8.000000
  0.266667  0.200000  0.066667     16.000000
  0.333333  0.200000  0.066667     16.000000
  0.400000  0.200000  0.066667     16.000000
  0.466667  0.200000  0.066667     16.000000
  0.266667  0.266667  0.066667      8.000000
  0.333333  0.266667  0.066667     16.000000
  0.400000  0.266667  0.066667     16.000000
  0.466667  0.266667  0.066667     16.000000
  0.333333  0.333333  0.066667      8.000000
  0.400000  0.333333  0.066667     16.000000
  0.466667  0.333333  0.066667     16.000000
  0.400000  0.400000  0.066667      8.000000
  0.466667  0.400000  0.066667     16.000000
  0.466667  0.466667  0.066667      8.000000
  0.000000  0.000000  0.133333      2.000000
  0.066667  0.000000  0.133333      8.000000
  0.133333  0.000000  0.133333      8.000000
  0.200000  0.000000  0.133333      8.000000
  0.266667  0.000000  0.133333      8.000000
  0.333333  0.000000  0.133333      8.000000
  0.400000  0.000000  0.133333      8.000000
  0.466667  0.000000  0.133333      8.000000
  0.066667  0.066667  0.133333      8.000000
  0.133333  0.066667  0.133333     16.000000
  0.200000  0.066667  0.133333     16.000000
  0.266667  0.066667  0.133333     16.000000
  0.333333  0.066667  0.133333     16.000000
  0.400000  0.066667  0.133333     16.000000
  0.466667  0.066667  0.133333     16.000000
  0.133333  0.133333  0.133333      8.000000
  0.200000  0.133333  0.133333     16.000000
  0.266667  0.133333  0.133333     16.000000
  0.333333  0.133333  0.133333     16.000000
  0.400000  0.133333  0.133333     16.000000
  0.466667  0.133333  0.133333     16.000000
  0.200000  0.200000  0.133333      8.000000
  0.266667  0.200000  0.133333     16.000000
  0.333333  0.200000  0.133333     16.000000
  0.400000  0.200000  0.133333     16.000000
  0.466667  0.200000  0.133333     16.000000
  0.266667  0.266667  0.133333      8.000000
  0.333333  0.266667  0.133333     16.000000
  0.400000  0.266667  0.133333     16.000000
  0.466667  0.266667  0.133333     16.000000
  0.333333  0.333333  0.133333      8.000000
  0.400000  0.333333  0.133333     16.000000
  0.466667  0.333333  0.133333     16.000000
  0.400000  0.400000  0.133333      8.000000
  0.466667  0.400000  0.133333     16.000000
  0.466667  0.466667  0.133333      8.000000
  0.000000  0.000000  0.200000      2.000000
  0.066667  0.000000  0.200000      8.000000
  0.133333  0.000000  0.200000      8.000000
  0.200000  0.000000  0.200000      8.000000
  0.266667  0.000000  0.200000      8.000000
  0.333333  0.000000  0.200000      8.000000
  0.400000  0.000000  0.200000      8.000000
  0.466667  0.000000  0.200000      8.000000
  0.066667  0.066667  0.200000      8.000000
  0.133333  0.066667  0.200000     16.000000
  0.200000  0.066667  0.200000     16.000000
  0.266667  0.066667  0.200000     16.000000
  0.333333  0.066667  0.200000     16.000000
  0.400000  0.066667  0.200000     16.000000
  0.466667  0.066667  0.200000     16.000000
  0.133333  0.133333  0.200000      8.000000
  0.200000  0.133333  0.200000     16.000000
  0.266667  0.133333  0.200000     16.000000
  0.333333  0.133333  0.200000     16.000000
  0.400000  0.133333  0.200000     16.000000
  0.466667  0.133333  0.200000     16.000000
  0.200000  0.200000  0.200000      8.000000
  0.266667  0.200000  0.200000     16.000000
  0.333333  0.200000  0.200000     16.000000
  0.400000  0.200000  0.200000     16.000000
  0.466667  0.200000  0.200000     16.000000
  0.266667  0.266667  0.200000      8.000000
  0.333333  0.266667  0.200000     16.000000
  0.400000  0.266667  0.200000     16.000000
  0.466667  0.266667  0.200000     16.000000
  0.333333  0.333333  0.200000      8.000000
  0.400000  0.333333  0.200000     16.000000
  0.466667  0.333333  0.200000     16.000000
  0.400000  0.400000  0.200000      8.000000
  0.466667  0.400000  0.200000     16.000000
  0.466667  0.466667  0.200000      8.000000
  0.000000  0.000000  0.266667      2.000000
  0.066667  0.000000  0.266667      8.000000
  0.133333  0.000000  0.266667      8.000000
  0.200000  0.000000  0.266667      8.000000
  0.266667  0.000000  0.266667      8.000000
  0.333333  0.000000  0.266667      8.000000
  0.400000  0.000000  0.266667      8.000000
  0.466667  0.000000  0.266667      8.000000
  0.066667  0.066667  0.266667      8.000000
  0.133333  0.066667  0.266667     16.000000
  0.200000  0.066667  0.266667     16.000000
  0.266667  0.066667  0.266667     16.000000
  0.333333  0.066667  0.266667     16.000000
  0.400000  0.066667  0.266667     16.000000
  0.466667  0.066667  0.266667     16.000000
  0.133333  0.133333  0.266667      8.000000
  0.200000  0.133333  0.266667     16.000000
  0.266667  0.133333  0.266667     16.000000
  0.333333  0.133333  0.266667     16.000000
  0.400000  0.133333  0.266667     16.000000
  0.466667  0.133333  0.266667     16.000000
  0.200000  0.200000  0.266667      8.000000
  0.266667  0.200000  0.266667     16.000000
  0.333333  0.200000  0.266667     16.000000
  0.400000  0.200000  0.266667     16.000000
  0.466667  0.200000  0.266667     16.000000
  0.266667  0.266667  0.266667      8.000000
  0.333333  0.266667  0.266667     16.000000
  0.400000  0.266667  0.266667     16.000000
  0.466667  0.266667  0.266667     16.000000
  0.333333  0.333333  0.266667      8.000000
  0.400000  0.333333  0.266667     16.000000
  0.466667  0.333333  0.266667     16.000000
  0.400000  0.400000  0.266667      8.000000
  0.466667  0.400000  0.266667     16.000000
  0.466667  0.466667  0.266667      8.000000
  0.000000  0.000000  0.333333      2.000000
  0.066667  0.000000  0.333333      8.000000
  0.133333  0.000000  0.333333      8.000000
  0.200000  0.000000  0.333333      8.000000
  0.266667  0.000000  0.333333      8.000000
  0.333333  0.000000  0.333333      8.000000
  0.400000  0.000000  0.333333      8.000000
  0.466667  0.000000  0.333333      8.000000
  0.066667  0.066667  0.333333      8.000000
  0.133333  0.066667  0.333333     16.000000
  0.200000  0.066667  0.333333     16.000000
  0.266667  0.066667  0.333333     16.000000
  0.333333  0.066667  0.333333     16.000000
  0.400000  0.066667  0.333333     16.000000
  0.466667  0.066667  0.333333     16.000000
  0.133333  0.133333  0.333333      8.000000
  0.200000  0.133333  0.333333     16.000000
  0.266667  0.133333  0.333333     16.000000
  0.333333  0.133333  0.333333     16.000000
  0.400000  0.133333  0.333333     16.000000
  0.466667  0.133333  0.333333     16.000000
  0.200000  0.200000  0.333333      8.000000
  0.266667  0.200000  0.333333     16.000000
  0.333333  0.200000  0.333333     16.000000
  0.400000  0.200000  0.333333     16.000000
  0.466667  0.200000  0.333333     16.000000
  0.266667  0.266667  0.333333      8.000000
  0.333333  0.266667  0.333333     16.000000
  0.400000  0.266667  0.333333     16.000000
  0.466667  0.266667  0.333333     16.000000
  0.333333  0.333333  0.333333      8.000000
  0.400000  0.333333  0.333333     16.000000
  0.466667  0.333333  0.333333     16.000000
  0.400000  0.400000  0.333333      8.000000
  0.466667  0.400000  0.333333     16.000000
  0.466667  0.466667  0.333333      8.000000
  0.000000  0.000000  0.400000      2.000000
  0.066667  0.000000  0.400000      8.000000
  0.133333  0.000000  0.400000      8.000000
  0.200000  0.000000  0.400000      8.000000
  0.266667  0.000000  0.400000      8.000000
  0.333333  0.000000  0.400000      8.000000
  0.400000  0.000000  0.400000      8.000000
  0.466667  0.000000  0.400000      8.000000
  0.066667  0.066667  0.400000      8.000000
  0.133333  0.066667  0.400000     16.000000
  0.200000  0.066667  0.400000     16.000000
  0.266667  0.066667  0.400000     16.000000
  0.333333  0.066667  0.400000     16.000000
  0.400000  0.066667  0.400000     16.000000
  0.466667  0.066667  0.400000     16.000000
  0.133333  0.133333  0.400000      8.000000
  0.200000  0.133333  0.400000     16.000000
  0.266667  0.133333  0.400000     16.000000
  0.333333  0.133333  0.400000     16.000000
  0.400000  0.133333  0.400000     16.000000
  0.466667  0.133333  0.400000     16.000000
  0.200000  0.200000  0.400000      8.000000
  0.266667  0.200000  0.400000     16.000000
  0.333333  0.200000  0.400000     16.000000
  0.400000  0.200000  0.400000     16.000000
  0.466667  0.200000  0.400000     16.000000
  0.266667  0.266667  0.400000      8.000000
  0.333333  0.266667  0.400000     16.000000
  0.400000  0.266667  0.400000     16.000000
  0.466667  0.266667  0.400000     16.000000
  0.333333  0.333333  0.400000      8.000000
  0.400000  0.333333  0.400000     16.000000
  0.466667  0.333333  0.400000     16.000000
  0.400000  0.400000  0.400000      8.000000
  0.466667  0.400000  0.400000     16.000000
  0.466667  0.466667  0.400000      8.000000
  0.000000  0.000000  0.466667      2.000000
  0.066667  0.000000  0.466667      8.000000
  0.133333  0.000000  0.466667      8.000000
  0.200000  0.000000  0.466667      8.000000
  0.266667  0.000000  0.466667      8.000000
  0.333333  0.000000  0.466667      8.000000
  0.400000  0.000000  0.466667      8.000000
  0.466667  0.000000  0.466667      8.000000
  0.066667  0.066667  0.466667      8.000000
  0.133333  0.066667  0.466667     16.000000
  0.200000  0.066667  0.466667     16.000000
  0.266667  0.066667  0.466667     16.000000
  0.333333  0.066667  0.466667     16.000000
  0.400000  0.066667  0.466667     16.000000
  0.466667  0.066667  0.466667     16.000000
  0.133333  0.133333  0.466667      8.000000
  0.200000  0.133333  0.466667     16.000000
  0.266667  0.133333  0.466667     16.000000
  0.333333  0.133333  0.466667     16.000000
  0.400000  0.133333  0.466667     16.000000
  0.466667  0.133333  0.466667     16.000000
  0.200000  0.200000  0.466667      8.000000
  0.266667  0.200000  0.466667     16.000000
  0.333333  0.200000  0.466667     16.000000
  0.400000  0.200000  0.466667     16.000000
  0.466667  0.200000  0.466667     16.000000
  0.266667  0.266667  0.466667      8.000000
  0.333333  0.266667  0.466667     16.000000
  0.400000  0.266667  0.466667     16.000000
  0.466667  0.266667  0.466667     16.000000
  0.333333  0.333333  0.466667      8.000000
  0.400000  0.333333  0.466667     16.000000
  0.466667  0.333333  0.466667     16.000000
  0.400000  0.400000  0.466667      8.000000
  0.466667  0.400000  0.466667     16.000000
  0.466667  0.466667  0.466667      8.000000
 
 Following cartesian coordinates:
            Coordinates               Weight
  0.000000  0.000000  0.000000      1.000000
  0.067465  0.000000  0.000000      4.000000
  0.134929  0.000000  0.000000      4.000000
  0.202394  0.000000  0.000000      4.000000
  0.269858  0.000000  0.000000      4.000000
  0.337323  0.000000  0.000000      4.000000
  0.404787  0.000000  0.000000      4.000000
  0.472252  0.000000  0.000000      4.000000
  0.067465  0.067465  0.000000      4.000000
  0.134929  0.067465  0.000000      8.000000
  0.202394  0.067465  0.000000      8.000000
  0.269858  0.067465  0.000000      8.000000
  0.337323  0.067465  0.000000      8.000000
  0.404787  0.067465  0.000000      8.000000
  0.472252  0.067465  0.000000      8.000000
  0.134929  0.134929  0.000000      4.000000
  0.202394  0.134929  0.000000      8.000000
  0.269858  0.134929  0.000000      8.000000
  0.337323  0.134929  0.000000      8.000000
  0.404787  0.134929  0.000000      8.000000
  0.472252  0.134929  0.000000      8.000000
  0.202394  0.202394  0.000000      4.000000
  0.269858  0.202394  0.000000      8.000000
  0.337323  0.202394  0.000000      8.000000
  0.404787  0.202394  0.000000      8.000000
  0.472252  0.202394  0.000000      8.000000
  0.269858  0.269858  0.000000      4.000000
  0.337323  0.269858  0.000000      8.000000
  0.404787  0.269858  0.000000      8.000000
  0.472252  0.269858  0.000000      8.000000
  0.337323  0.337323  0.000000      4.000000
  0.404787  0.337323  0.000000      8.000000
  0.472252  0.337323  0.000000      8.000000
  0.404787  0.404787  0.000000      4.000000
  0.472252  0.404787  0.000000      8.000000
  0.472252  0.472252  0.000000      4.000000
  0.000000  0.000000  0.066494      2.000000
  0.067465  0.000000  0.066494      8.000000
  0.134929  0.000000  0.066494      8.000000
  0.202394  0.000000  0.066494      8.000000
  0.269858  0.000000  0.066494      8.000000
  0.337323  0.000000  0.066494      8.000000
  0.404787  0.000000  0.066494      8.000000
  0.472252  0.000000  0.066494      8.000000
  0.067465  0.067465  0.066494      8.000000
  0.134929  0.067465  0.066494     16.000000
  0.202394  0.067465  0.066494     16.000000
  0.269858  0.067465  0.066494     16.000000
  0.337323  0.067465  0.066494     16.000000
  0.404787  0.067465  0.066494     16.000000
  0.472252  0.067465  0.066494     16.000000
  0.134929  0.134929  0.066494      8.000000
  0.202394  0.134929  0.066494     16.000000
  0.269858  0.134929  0.066494     16.000000
  0.337323  0.134929  0.066494     16.000000
  0.404787  0.134929  0.066494     16.000000
  0.472252  0.134929  0.066494     16.000000
  0.202394  0.202394  0.066494      8.000000
  0.269858  0.202394  0.066494     16.000000
  0.337323  0.202394  0.066494     16.000000
  0.404787  0.202394  0.066494     16.000000
  0.472252  0.202394  0.066494     16.000000
  0.269858  0.269858  0.066494      8.000000
  0.337323  0.269858  0.066494     16.000000
  0.404787  0.269858  0.066494     16.000000
  0.472252  0.269858  0.066494     16.000000
  0.337323  0.337323  0.066494      8.000000
  0.404787  0.337323  0.066494     16.000000
  0.472252  0.337323  0.066494     16.000000
  0.404787  0.404787  0.066494      8.000000
  0.472252  0.404787  0.066494     16.000000
  0.472252  0.472252  0.066494      8.000000
  0.000000  0.000000  0.132989      2.000000
  0.067465  0.000000  0.132989      8.000000
  0.134929  0.000000  0.132989      8.000000
  0.202394  0.000000  0.132989      8.000000
  0.269858  0.000000  0.132989      8.000000
  0.337323  0.000000  0.132989      8.000000
  0.404787  0.000000  0.132989      8.000000
  0.472252  0.000000  0.132989      8.000000
  0.067465  0.067465  0.132989      8.000000
  0.134929  0.067465  0.132989     16.000000
  0.202394  0.067465  0.132989     16.000000
  0.269858  0.067465  0.132989     16.000000
  0.337323  0.067465  0.132989     16.000000
  0.404787  0.067465  0.132989     16.000000
  0.472252  0.067465  0.132989     16.000000
  0.134929  0.134929  0.132989      8.000000
  0.202394  0.134929  0.132989     16.000000
  0.269858  0.134929  0.132989     16.000000
  0.337323  0.134929  0.132989     16.000000
  0.404787  0.134929  0.132989     16.000000
  0.472252  0.134929  0.132989     16.000000
  0.202394  0.202394  0.132989      8.000000
  0.269858  0.202394  0.132989     16.000000
  0.337323  0.202394  0.132989     16.000000
  0.404787  0.202394  0.132989     16.000000
  0.472252  0.202394  0.132989     16.000000
  0.269858  0.269858  0.132989      8.000000
  0.337323  0.269858  0.132989     16.000000
  0.404787  0.269858  0.132989     16.000000
  0.472252  0.269858  0.132989     16.000000
  0.337323  0.337323  0.132989      8.000000
  0.404787  0.337323  0.132989     16.000000
  0.472252  0.337323  0.132989     16.000000
  0.404787  0.404787  0.132989      8.000000
  0.472252  0.404787  0.132989     16.000000
  0.472252  0.472252  0.132989      8.000000
  0.000000  0.000000  0.199483      2.000000
  0.067465  0.000000  0.199483      8.000000
  0.134929  0.000000  0.199483      8.000000
  0.202394  0.000000  0.199483      8.000000
  0.269858  0.000000  0.199483      8.000000
  0.337323  0.000000  0.199483      8.000000
  0.404787  0.000000  0.199483      8.000000
  0.472252  0.000000  0.199483      8.000000
  0.067465  0.067465  0.199483      8.000000
  0.134929  0.067465  0.199483     16.000000
  0.202394  0.067465  0.199483     16.000000
  0.269858  0.067465  0.199483     16.000000
  0.337323  0.067465  0.199483     16.000000
  0.404787  0.067465  0.199483     16.000000
  0.472252  0.067465  0.199483     16.000000
  0.134929  0.134929  0.199483      8.000000
  0.202394  0.134929  0.199483     16.000000
  0.269858  0.134929  0.199483     16.000000
  0.337323  0.134929  0.199483     16.000000
  0.404787  0.134929  0.199483     16.000000
  0.472252  0.134929  0.199483     16.000000
  0.202394  0.202394  0.199483      8.000000
  0.269858  0.202394  0.199483     16.000000
  0.337323  0.202394  0.199483     16.000000
  0.404787  0.202394  0.199483     16.000000
  0.472252  0.202394  0.199483     16.000000
  0.269858  0.269858  0.199483      8.000000
  0.337323  0.269858  0.199483     16.000000
  0.404787  0.269858  0.199483     16.000000
  0.472252  0.269858  0.199483     16.000000
  0.337323  0.337323  0.199483      8.000000
  0.404787  0.337323  0.199483     16.000000
  0.472252  0.337323  0.199483     16.000000
  0.404787  0.404787  0.199483      8.000000
  0.472252  0.404787  0.199483     16.000000
  0.472252  0.472252  0.199483      8.000000
  0.000000  0.000000  0.265977      2.000000
  0.067465  0.000000  0.265977      8.000000
  0.134929  0.000000  0.265977      8.000000
  0.202394  0.000000  0.265977      8.000000
  0.269858  0.000000  0.265977      8.000000
  0.337323  0.000000  0.265977      8.000000
  0.404787  0.000000  0.265977      8.000000
  0.472252  0.000000  0.265977      8.000000
  0.067465  0.067465  0.265977      8.000000
  0.134929  0.067465  0.265977     16.000000
  0.202394  0.067465  0.265977     16.000000
  0.269858  0.067465  0.265977     16.000000
  0.337323  0.067465  0.265977     16.000000
  0.404787  0.067465  0.265977     16.000000
  0.472252  0.067465  0.265977     16.000000
  0.134929  0.134929  0.265977      8.000000
  0.202394  0.134929  0.265977     16.000000
  0.269858  0.134929  0.265977     16.000000
  0.337323  0.134929  0.265977     16.000000
  0.404787  0.134929  0.265977     16.000000
  0.472252  0.134929  0.265977     16.000000
  0.202394  0.202394  0.265977      8.000000
  0.269858  0.202394  0.265977     16.000000
  0.337323  0.202394  0.265977     16.000000
  0.404787  0.202394  0.265977     16.000000
  0.472252  0.202394  0.265977     16.000000
  0.269858  0.269858  0.265977      8.000000
  0.337323  0.269858  0.265977     16.000000
  0.404787  0.269858  0.265977     16.000000
  0.472252  0.269858  0.265977     16.000000
  0.337323  0.337323  0.265977      8.000000
  0.404787  0.337323  0.265977     16.000000
  0.472252  0.337323  0.265977     16.000000
  0.404787  0.404787  0.265977      8.000000
  0.472252  0.404787  0.265977     16.000000
  0.472252  0.472252  0.265977      8.000000
  0.000000  0.000000  0.332471      2.000000
  0.067465  0.000000  0.332471      8.000000
  0.134929  0.000000  0.332471      8.000000
  0.202394  0.000000  0.332471      8.000000
  0.269858  0.000000  0.332471      8.000000
  0.337323  0.000000  0.332471      8.000000
  0.404787  0.000000  0.332471      8.000000
  0.472252  0.000000  0.332471      8.000000
  0.067465  0.067465  0.332471      8.000000
  0.134929  0.067465  0.332471     16.000000
  0.202394  0.067465  0.332471     16.000000
  0.269858  0.067465  0.332471     16.000000
  0.337323  0.067465  0.332471     16.000000
  0.404787  0.067465  0.332471     16.000000
  0.472252  0.067465  0.332471     16.000000
  0.134929  0.134929  0.332471      8.000000
  0.202394  0.134929  0.332471     16.000000
  0.269858  0.134929  0.332471     16.000000
  0.337323  0.134929  0.332471     16.000000
  0.404787  0.134929  0.332471     16.000000
  0.472252  0.134929  0.332471     16.000000
  0.202394  0.202394  0.332471      8.000000
  0.269858  0.202394  0.332471     16.000000
  0.337323  0.202394  0.332471     16.000000
  0.404787  0.202394  0.332471     16.000000
  0.472252  0.202394  0.332471     16.000000
  0.269858  0.269858  0.332471      8.000000
  0.337323  0.269858  0.332471     16.000000
  0.404787  0.269858  0.332471     16.000000
  0.472252  0.269858  0.332471     16.000000
  0.337323  0.337323  0.332471      8.000000
  0.404787  0.337323  0.332471     16.000000
  0.472252  0.337323  0.332471     16.000000
  0.404787  0.404787  0.332471      8.000000
  0.472252  0.404787  0.332471     16.000000
  0.472252  0.472252  0.332471      8.000000
  0.000000  0.000000  0.398966      2.000000
  0.067465  0.000000  0.398966      8.000000
  0.134929  0.000000  0.398966      8.000000
  0.202394  0.000000  0.398966      8.000000
  0.269858  0.000000  0.398966      8.000000
  0.337323  0.000000  0.398966      8.000000
  0.404787  0.000000  0.398966      8.000000
  0.472252  0.000000  0.398966      8.000000
  0.067465  0.067465  0.398966      8.000000
  0.134929  0.067465  0.398966     16.000000
  0.202394  0.067465  0.398966     16.000000
  0.269858  0.067465  0.398966     16.000000
  0.337323  0.067465  0.398966     16.000000
  0.404787  0.067465  0.398966     16.000000
  0.472252  0.067465  0.398966     16.000000
  0.134929  0.134929  0.398966      8.000000
  0.202394  0.134929  0.398966     16.000000
  0.269858  0.134929  0.398966     16.000000
  0.337323  0.134929  0.398966     16.000000
  0.404787  0.134929  0.398966     16.000000
  0.472252  0.134929  0.398966     16.000000
  0.202394  0.202394  0.398966      8.000000
  0.269858  0.202394  0.398966     16.000000
  0.337323  0.202394  0.398966     16.000000
  0.404787  0.202394  0.398966     16.000000
  0.472252  0.202394  0.398966     16.000000
  0.269858  0.269858  0.398966      8.000000
  0.337323  0.269858  0.398966     16.000000
  0.404787  0.269858  0.398966     16.000000
  0.472252  0.269858  0.398966     16.000000
  0.337323  0.337323  0.398966      8.000000
  0.404787  0.337323  0.398966     16.000000
  0.472252  0.337323  0.398966     16.000000
  0.404787  0.404787  0.398966      8.000000
  0.472252  0.404787  0.398966     16.000000
  0.472252  0.472252  0.398966      8.000000
  0.000000  0.000000  0.465460      2.000000
  0.067465  0.000000  0.465460      8.000000
  0.134929  0.000000  0.465460      8.000000
  0.202394  0.000000  0.465460      8.000000
  0.269858  0.000000  0.465460      8.000000
  0.337323  0.000000  0.465460      8.000000
  0.404787  0.000000  0.465460      8.000000
  0.472252  0.000000  0.465460      8.000000
  0.067465  0.067465  0.465460      8.000000
  0.134929  0.067465  0.465460     16.000000
  0.202394  0.067465  0.465460     16.000000
  0.269858  0.067465  0.465460     16.000000
  0.337323  0.067465  0.465460     16.000000
  0.404787  0.067465  0.465460     16.000000
  0.472252  0.067465  0.465460     16.000000
  0.134929  0.134929  0.465460      8.000000
  0.202394  0.134929  0.465460     16.000000
  0.269858  0.134929  0.465460     16.000000
  0.337323  0.134929  0.465460     16.000000
  0.404787  0.134929  0.465460     16.000000
  0.472252  0.134929  0.465460     16.000000
  0.202394  0.202394  0.465460      8.000000
  0.269858  0.202394  0.465460     16.000000
  0.337323  0.202394  0.465460     16.000000
  0.404787  0.202394  0.465460     16.000000
  0.472252  0.202394  0.465460     16.000000
  0.269858  0.269858  0.465460      8.000000
  0.337323  0.269858  0.465460     16.000000
  0.404787  0.269858  0.465460     16.000000
  0.472252  0.269858  0.465460     16.000000
  0.337323  0.337323  0.465460      8.000000
  0.404787  0.337323  0.465460     16.000000
  0.472252  0.337323  0.465460     16.000000
  0.404787  0.404787  0.465460      8.000000
  0.472252  0.404787  0.465460     16.000000
  0.472252  0.472252  0.465460      8.000000
 


--------------------------------------------------------------------------------------------------------




 Dimension of arrays:
   k-points           NKPTS =    288   k-points in BZ     NKDIM =    288   number of bands    NBANDS=    124
   number of dos      NEDOS =   1500   number of ions     NIONS =     16
   non local maximal  LDIM  =      6   non local SUM 2l+1 LMDIM =     18
   total plane-waves  NPLWV =  74088
   max r-space proj   IRMAX =   5366   max aug-charges    IRDMAX= 172359
   dimension x,y,z NGX =    42 NGY =   42 NGZ =   42
   dimension x,y,z NGXF=    84 NGYF=   84 NGZF=   84
   support grid    NGXF=   168 NGYF=  168 NGZF=  168
   ions per type =               8   4   4
   NGX,Y,Z   is equivalent  to a cutoff of  12.27, 12.27, 12.09 a.u.
   NGXF,Y,Z  is equivalent  to a cutoff of  24.53, 24.53, 24.18 a.u.

 SYSTEM =  NiCoMnGa                                
 POSCAR =  Heusler tetragonGa                      

 Startparameter for this run:
   NWRITE =      2    write-flag & timer
   PREC   = accura    normal or accurate (medium, high low for compatibility)
   ISTART =      0    job   : 0-new  1-cont  2-samecut
   ICHARG =      2    charge: 1-file 2-atom 10-const
   ISPIN  =      2    spin polarized calculation?
   LNONCOLLINEAR =      F non collinear calculations
   LSORBIT =      F    spin-orbit coupling
   INIWAV =      1    electr: 0-lowe 1-rand  2-diag
   LASPH  =      F    aspherical Exc in radial PAW
   METAGGA=      F    non-selfconsistent MetaGGA calc.

 Electronic Relaxation 1
   ENCUT  =  500.0 eV  36.75 Ry    6.06 a.u.  10.38 10.38 10.53*2*pi/ulx,y,z
   ENINI  =  500.0     initial cutoff
   ENAUG  =  578.3 eV  augmentation charge cutoff
   NELM   =    160;   NELMIN=  2; NELMDL= -6     # of ELM steps 
   EDIFF  = 0.1E-05   stopping-criterion for ELM
   LREAL  =      T    real-space projection
   NLSPLINE    = F    spline interpolate recip. space projectors
   LCOMPAT=      F    compatible to vasp.4.4
   GGA_COMPAT  = T    GGA compatible to vasp.4.4-vasp.4.6
   LMAXPAW     = -100 max onsite density
   LMAXMIX     =    6 max onsite mixed and CHGCAR
   VOSKOWN=      0    Vosko Wilk Nusair interpolation
   ROPT   =   -0.00025  -0.00025  -0.00025
 Ionic relaxation
   EDIFFG = -.3E-02   stopping-criterion for IOM
   NSW    =      0    number of steps for IOM
   NBLOCK =      1;   KBLOCK =      1    inner block; outer block 
   IBRION =     -1    ionic relax: 0-MD 1-quasi-New 2-CG
   NFREE  =      1    steps in history (QN), initial steepest desc. (CG)
   ISIF   =      3    stress and relaxation
   IWAVPR =     10    prediction:  0-non 1-charg 2-wave 3-comb
   ISYM   =      2    0-nonsym 1-usesym 2-fastsym
   LCORR  =      T    Harris-Foulkes like correction to forces

   POTIM  = 0.0050    time-step for ionic-motion
   TEIN   =    0.0    initial temperature
   TEBEG  =    0.0;   TEEND  =   0.0 temperature during run
   SMASS  =  -3.00    Nose mass-parameter (am)
   estimated Nose-frequenzy (Omega)   =  0.10E-29 period in steps = 0.13E+49 mass=  -0.740E-27a.u.
   SCALEE = 1.0000    scale energy and forces
   NPACO  =    256;   APACO  = 16.0  distance and # of slots for P.C.
   PSTRESS=    0.0 pullay stress

  Mass of Ions in am
   POMASS =  55.85 58.93 72.61
  Ionic Valenz
   ZVAL   =  14.00 15.00  4.00
  Atomic Wigner-Seitz radii
   RWIGS  =   1.16  1.16  1.16
  virtual crystal weights 
   VCA    =   1.00  1.00  1.00
   NELECT =     188.0000    total number of electrons
   NUPDOWN=      -1.0000    fix difference up-down

 DOS related values:
   EMIN   =  10.00;   EMAX   =-10.00  energy-range for DOS
   EFERMI =   0.00
   ISMEAR =     1;   SIGMA  =   0.10  broadening in eV -4-tet -1-fermi 0-gaus

 Electronic relaxation 2 (details)
   IALGO  =     38    algorithm
   LDIAG  =      T    sub-space diagonalisation (order eigenvalues)
   LSUBROT=      F    optimize rotation matrix (better conditioning)
   TURBO    =      0    0=normal 1=particle mesh
   IRESTART =      0    0=no restart 2=restart with 2 vectors
   NREBOOT  =      0    no. of reboots
   NMIN     =      0    reboot dimension
   EREF     =   0.00    reference energy to select bands
   IMIX   =      4    mixing-type and parameters
     AMIX     =   0.18;   BMIX     =  0.00
     AMIX_MAG =   0.26;   BMIX_MAG =  0.01
     AMIN     =   0.10
     WC   =   100.;   INIMIX=   1;  MIXPRE=   1;  MAXMIX= -45

 Intra band minimization:
   WEIMIN = 0.0000     energy-eigenvalue tresh-hold
   EBREAK =  0.20E-08  absolut break condition
   DEPER  =   0.30     relativ break condition  

   TIME   =   0.40     timestep for ELM

  volume/ion in A,a.u.               =      11.69        78.91
  Fermi-wavevector in a.u.,A,eV,Ry     =   1.639739  3.098657 36.582580  2.688744
  Thomas-Fermi vector in A             =   2.730494
 
 Write flags
   LWAVE        =      F    write WAVECAR
   LDOWNSAMPLE  =      F    k-point downsampling of WAVECAR
   LCHARG       =      T    write CHGCAR
   LVTOT        =      F    write LOCPOT, total local potential
   LVHAR        =      F    write LOCPOT, Hartree potential only
   LELF         =      F    write electronic localiz. function (ELF)
   LORBIT       =     10    0 simple, 1 ext, 2 COOP (PROOUT), +10 PAW based schemes


 Dipole corrections
   LMONO  =      F    monopole corrections only (constant potential shift)
   LDIPOL =      F    correct potential (dipole corrections)
   IDIPOL =      0    1-x, 2-y, 3-z, 4-all directions 
   EPSILON=  1.0000000 bulk dielectric constant

 Exchange correlation treatment:
   GGA     =    --    GGA type
   LEXCH   =     8    internal setting for exchange type
   VOSKOWN=      0    Vosko Wilk Nusair interpolation
   LHFCALC =     F    Hartree Fock is set to
   LHFONE  =     F    Hartree Fock one center treatment
   AEXX    =    0.0000 exact exchange contribution

 Linear response parameters
   LEPSILON=     F    determine dielectric tensor
   LRPA    =     F    only Hartree local field effects (RPA)
   LNABLA  =     F    use nabla operator in PAW spheres
   LVEL    =     F    velocity operator in full k-point grid
   LINTERFAST=   F  fast interpolation
   KINTER  =     0    interpolate to denser k-point grid
   CSHIFT  =0.1000    complex shift for real part using Kramers Kronig
   OMEGAMAX=  -1.0    maximum frequency
   DEG_THRESHOLD= 0.2000000E-02 threshold for treating states as degnerate
   RTIME   =   -0.100 relaxation time in fs
  (WPLASMAI=    0.000 imaginary part of plasma frequency in eV, 0.658/RTIME)
   DFIELD  = 0.0000000 0.0000000 0.0000000 field for delta impulse in time
 
 Orbital magnetization related:
   ORBITALMAG=     F  switch on orbital magnetization
   LCHIMAG   =     F  perturbation theory with respect to B field
   DQ        =  0.001000  dq finite difference perturbation B field
   LLRAUG    =     F  two centre corrections for induced B field



--------------------------------------------------------------------------------------------------------


 Static calculation
 charge density and potential will be updated during run
 spin polarized calculation
 Variant of blocked Davidson
 Davidson routine will perform the subspace rotation
 perform sub-space diagonalisation
    after iterative eigenvector-optimisation
 modified Broyden-mixing scheme, WC =      100.0
 initial mixing is a Kerker type mixing with AMIX =  0.1800 and BMIX =      0.0025
 Hartree-type preconditioning will be used
 using additional bands           30
 real space projection scheme for non local part
 use partial core corrections
 calculate Harris-corrections to forces 
   (improved forces if not selfconsistent)
 use gradient corrections 
 use of overlap-Matrix (Vanderbilt PP)
 Methfessel and Paxton  Order N= 1 SIGMA  =   0.10


--------------------------------------------------------------------------------------------------------


  energy-cutoff  :      500.00
  volume of cell :      187.09
      direct lattice vectors                 reciprocal lattice vectors
     5.691877867  0.000000000  0.000000000     0.175688942  0.000000000  0.000000000
     0.000000000  5.691877867  0.000000000     0.000000000  0.175688942  0.000000000
     0.000000000  0.000000000  5.774934509     0.000000000  0.000000000  0.173162137

  length of vectors
     5.691877867  5.691877867  5.774934509     0.175688942  0.175688942  0.173162137


 
 k-points in units of 2pi/SCALE and weight: Ni7CoMn5CrSn2                           
   0.00000000  0.00000000  0.00000000       0.000
   0.06746455  0.00000000  0.00000000       0.001
   0.13492911  0.00000000  0.00000000       0.001
   0.20239366  0.00000000  0.00000000       0.001
   0.26985821  0.00000000  0.00000000       0.001
   0.33732277  0.00000000  0.00000000       0.001
   0.40478732  0.00000000  0.00000000       0.001
   0.47225188  0.00000000  0.00000000       0.001
   0.06746455  0.06746455  0.00000000       0.001
   0.13492911  0.06746455  0.00000000       0.002
   0.20239366  0.06746455  0.00000000       0.002
   0.26985821  0.06746455  0.00000000       0.002
   0.33732277  0.06746455  0.00000000       0.002
   0.40478732  0.06746455  0.00000000       0.002
   0.47225188  0.06746455  0.00000000       0.002
   0.13492911  0.13492911  0.00000000       0.001
   0.20239366  0.13492911  0.00000000       0.002
   0.26985821  0.13492911  0.00000000       0.002
   0.33732277  0.13492911  0.00000000       0.002
   0.40478732  0.13492911  0.00000000       0.002
   0.47225188  0.13492911  0.00000000       0.002
   0.20239366  0.20239366  0.00000000       0.001
   0.26985821  0.20239366  0.00000000       0.002
   0.33732277  0.20239366  0.00000000       0.002
   0.40478732  0.20239366  0.00000000       0.002
   0.47225188  0.20239366  0.00000000       0.002
   0.26985821  0.26985821  0.00000000       0.001
   0.33732277  0.26985821  0.00000000       0.002
   0.40478732  0.26985821  0.00000000       0.002
   0.47225188  0.26985821  0.00000000       0.002
   0.33732277  0.33732277  0.00000000       0.001
   0.40478732  0.33732277  0.00000000       0.002
   0.47225188  0.33732277  0.00000000       0.002
   0.40478732  0.40478732  0.00000000       0.001
   0.47225188  0.40478732  0.00000000       0.002
   0.47225188  0.47225188  0.00000000       0.001
   0.00000000  0.00000000  0.06649426       0.001
   0.06746455  0.00000000  0.06649426       0.002
   0.13492911  0.00000000  0.06649426       0.002
   0.20239366  0.00000000  0.06649426       0.002
   0.26985821  0.00000000  0.06649426       0.002
   0.33732277  0.00000000  0.06649426       0.002
   0.40478732  0.00000000  0.06649426       0.002
   0.47225188  0.00000000  0.06649426       0.002
   0.06746455  0.06746455  0.06649426       0.002
   0.13492911  0.06746455  0.06649426       0.005
   0.20239366  0.06746455  0.06649426       0.005
   0.26985821  0.06746455  0.06649426       0.005
   0.33732277  0.06746455  0.06649426       0.005
   0.40478732  0.06746455  0.06649426       0.005
   0.47225188  0.06746455  0.06649426       0.005
   0.13492911  0.13492911  0.06649426       0.002
   0.20239366  0.13492911  0.06649426       0.005
   0.26985821  0.13492911  0.06649426       0.005
   0.33732277  0.13492911  0.06649426       0.005
   0.40478732  0.13492911  0.06649426       0.005
   0.47225188  0.13492911  0.06649426       0.005
   0.20239366  0.20239366  0.06649426       0.002
   0.26985821  0.20239366  0.06649426       0.005
   0.33732277  0.20239366  0.06649426       0.005
   0.40478732  0.20239366  0.06649426       0.005
   0.47225188  0.20239366  0.06649426       0.005
   0.26985821  0.26985821  0.06649426       0.002
   0.33732277  0.26985821  0.06649426       0.005
   0.40478732  0.26985821  0.06649426       0.005
   0.47225188  0.26985821  0.06649426       0.005
   0.33732277  0.33732277  0.06649426       0.002
   0.40478732  0.33732277  0.06649426       0.005
   0.47225188  0.33732277  0.06649426       0.005
   0.40478732  0.40478732  0.06649426       0.002
   0.47225188  0.40478732  0.06649426       0.005
   0.47225188  0.47225188  0.06649426       0.002
   0.00000000  0.00000000  0.13298852       0.001
   0.06746455  0.00000000  0.13298852       0.002
   0.13492911  0.00000000  0.13298852       0.002
   0.20239366  0.00000000  0.13298852       0.002
   0.26985821  0.00000000  0.13298852       0.002
   0.33732277  0.00000000  0.13298852       0.002
   0.40478732  0.00000000  0.13298852       0.002
   0.47225188  0.00000000  0.13298852       0.002
   0.06746455  0.06746455  0.13298852       0.002
   0.13492911  0.06746455  0.13298852       0.005
   0.20239366  0.06746455  0.13298852       0.005
   0.26985821  0.06746455  0.13298852       0.005
   0.33732277  0.06746455  0.13298852       0.005
   0.40478732  0.06746455  0.13298852       0.005
   0.47225188  0.06746455  0.13298852       0.005
   0.13492911  0.13492911  0.13298852       0.002
   0.20239366  0.13492911  0.13298852       0.005
   0.26985821  0.13492911  0.13298852       0.005
   0.33732277  0.13492911  0.13298852       0.005
   0.40478732  0.13492911  0.13298852       0.005
   0.47225188  0.13492911  0.13298852       0.005
   0.20239366  0.20239366  0.13298852       0.002
   0.26985821  0.20239366  0.13298852       0.005
   0.33732277  0.20239366  0.13298852       0.005
   0.40478732  0.20239366  0.13298852       0.005
   0.47225188  0.20239366  0.13298852       0.005
   0.26985821  0.26985821  0.13298852       0.002
   0.33732277  0.26985821  0.13298852       0.005
   0.40478732  0.26985821  0.13298852       0.005
   0.47225188  0.26985821  0.13298852       0.005
   0.33732277  0.33732277  0.13298852       0.002
   0.40478732  0.33732277  0.13298852       0.005
   0.47225188  0.33732277  0.13298852       0.005
   0.40478732  0.40478732  0.13298852       0.002
   0.47225188  0.40478732  0.13298852       0.005
   0.47225188  0.47225188  0.13298852       0.002
   0.00000000  0.00000000  0.19948278       0.001
   0.06746455  0.00000000  0.19948278       0.002
   0.13492911  0.00000000  0.19948278       0.002
   0.20239366  0.00000000  0.19948278       0.002
   0.26985821  0.00000000  0.19948278       0.002
   0.33732277  0.00000000  0.19948278       0.002
   0.40478732  0.00000000  0.19948278       0.002
   0.47225188  0.00000000  0.19948278       0.002
   0.06746455  0.06746455  0.19948278       0.002
   0.13492911  0.06746455  0.19948278       0.005
   0.20239366  0.06746455  0.19948278       0.005
   0.26985821  0.06746455  0.19948278       0.005
   0.33732277  0.06746455  0.19948278       0.005
   0.40478732  0.06746455  0.19948278       0.005
   0.47225188  0.06746455  0.19948278       0.005
   0.13492911  0.13492911  0.19948278       0.002
   0.20239366  0.13492911  0.19948278       0.005
   0.26985821  0.13492911  0.19948278       0.005
   0.33732277  0.13492911  0.19948278       0.005
   0.40478732  0.13492911  0.19948278       0.005
   0.47225188  0.13492911  0.19948278       0.005
   0.20239366  0.20239366  0.19948278       0.002
   0.26985821  0.20239366  0.19948278       0.005
   0.33732277  0.20239366  0.19948278       0.005
   0.40478732  0.20239366  0.19948278       0.005
   0.47225188  0.20239366  0.19948278       0.005
   0.26985821  0.26985821  0.19948278       0.002
   0.33732277  0.26985821  0.19948278       0.005
   0.40478732  0.26985821  0.19948278       0.005
   0.47225188  0.26985821  0.19948278       0.005
   0.33732277  0.33732277  0.19948278       0.002
   0.40478732  0.33732277  0.19948278       0.005
   0.47225188  0.33732277  0.19948278       0.005
   0.40478732  0.40478732  0.19948278       0.002
   0.47225188  0.40478732  0.19948278       0.005
   0.47225188  0.47225188  0.19948278       0.002
   0.00000000  0.00000000  0.26597704       0.001
   0.06746455  0.00000000  0.26597704       0.002
   0.13492911  0.00000000  0.26597704       0.002
   0.20239366  0.00000000  0.26597704       0.002
   0.26985821  0.00000000  0.26597704       0.002
   0.33732277  0.00000000  0.26597704       0.002
   0.40478732  0.00000000  0.26597704       0.002
   0.47225188  0.00000000  0.26597704       0.002
   0.06746455  0.06746455  0.26597704       0.002
   0.13492911  0.06746455  0.26597704       0.005
   0.20239366  0.06746455  0.26597704       0.005
   0.26985821  0.06746455  0.26597704       0.005
   0.33732277  0.06746455  0.26597704       0.005
   0.40478732  0.06746455  0.26597704       0.005
   0.47225188  0.06746455  0.26597704       0.005
   0.13492911  0.13492911  0.26597704       0.002
   0.20239366  0.13492911  0.26597704       0.005
   0.26985821  0.13492911  0.26597704       0.005
   0.33732277  0.13492911  0.26597704       0.005
   0.40478732  0.13492911  0.26597704       0.005
   0.47225188  0.13492911  0.26597704       0.005
   0.20239366  0.20239366  0.26597704       0.002
   0.26985821  0.20239366  0.26597704       0.005
   0.33732277  0.20239366  0.26597704       0.005
   0.40478732  0.20239366  0.26597704       0.005
   0.47225188  0.20239366  0.26597704       0.005
   0.26985821  0.26985821  0.26597704       0.002
   0.33732277  0.26985821  0.26597704       0.005
   0.40478732  0.26985821  0.26597704       0.005
   0.47225188  0.26985821  0.26597704       0.005
   0.33732277  0.33732277  0.26597704       0.002
   0.40478732  0.33732277  0.26597704       0.005
   0.47225188  0.33732277  0.26597704       0.005
   0.40478732  0.40478732  0.26597704       0.002
   0.47225188  0.40478732  0.26597704       0.005
   0.47225188  0.47225188  0.26597704       0.002
   0.00000000  0.00000000  0.33247130       0.001
   0.06746455  0.00000000  0.33247130       0.002
   0.13492911  0.00000000  0.33247130       0.002
   0.20239366  0.00000000  0.33247130       0.002
   0.26985821  0.00000000  0.33247130       0.002
   0.33732277  0.00000000  0.33247130       0.002
   0.40478732  0.00000000  0.33247130       0.002
   0.47225188  0.00000000  0.33247130       0.002
   0.06746455  0.06746455  0.33247130       0.002
   0.13492911  0.06746455  0.33247130       0.005
   0.20239366  0.06746455  0.33247130       0.005
   0.26985821  0.06746455  0.33247130       0.005
   0.33732277  0.06746455  0.33247130       0.005
   0.40478732  0.06746455  0.33247130       0.005
   0.47225188  0.06746455  0.33247130       0.005
   0.13492911  0.13492911  0.33247130       0.002
   0.20239366  0.13492911  0.33247130       0.005
   0.26985821  0.13492911  0.33247130       0.005
   0.33732277  0.13492911  0.33247130       0.005
   0.40478732  0.13492911  0.33247130       0.005
   0.47225188  0.13492911  0.33247130       0.005
   0.20239366  0.20239366  0.33247130       0.002
   0.26985821  0.20239366  0.33247130       0.005
   0.33732277  0.20239366  0.33247130       0.005
   0.40478732  0.20239366  0.33247130       0.005
   0.47225188  0.20239366  0.33247130       0.005
   0.26985821  0.26985821  0.33247130       0.002
   0.33732277  0.26985821  0.33247130       0.005
   0.40478732  0.26985821  0.33247130       0.005
   0.47225188  0.26985821  0.33247130       0.005
   0.33732277  0.33732277  0.33247130       0.002
   0.40478732  0.33732277  0.33247130       0.005
   0.47225188  0.33732277  0.33247130       0.005
   0.40478732  0.40478732  0.33247130       0.002
   0.47225188  0.40478732  0.33247130       0.005
   0.47225188  0.47225188  0.33247130       0.002
   0.00000000  0.00000000  0.39896556       0.001
   0.06746455  0.00000000  0.39896556       0.002
   0.13492911  0.00000000  0.39896556       0.002
   0.20239366  0.00000000  0.39896556       0.002
   0.26985821  0.00000000  0.39896556       0.002
   0.33732277  0.00000000  0.39896556       0.002
   0.40478732  0.00000000  0.39896556       0.002
   0.47225188  0.00000000  0.39896556       0.002
   0.06746455  0.06746455  0.39896556       0.002
   0.13492911  0.06746455  0.39896556       0.005
   0.20239366  0.06746455  0.39896556       0.005
   0.26985821  0.06746455  0.39896556       0.005
   0.33732277  0.06746455  0.39896556       0.005
   0.40478732  0.06746455  0.39896556       0.005
   0.47225188  0.06746455  0.39896556       0.005
   0.13492911  0.13492911  0.39896556       0.002
   0.20239366  0.13492911  0.39896556       0.005
   0.26985821  0.13492911  0.39896556       0.005
   0.33732277  0.13492911  0.39896556       0.005
   0.40478732  0.13492911  0.39896556       0.005
   0.47225188  0.13492911  0.39896556       0.005
   0.20239366  0.20239366  0.39896556       0.002
   0.26985821  0.20239366  0.39896556       0.005
   0.33732277  0.20239366  0.39896556       0.005
   0.40478732  0.20239366  0.39896556       0.005
   0.47225188  0.20239366  0.39896556       0.005
   0.26985821  0.26985821  0.39896556       0.002
   0.33732277  0.26985821  0.39896556       0.005
   0.40478732  0.26985821  0.39896556       0.005
   0.47225188  0.26985821  0.39896556       0.005
   0.33732277  0.33732277  0.39896556       0.002
   0.40478732  0.33732277  0.39896556       0.005
   0.47225188  0.33732277  0.39896556       0.005
   0.40478732  0.40478732  0.39896556       0.002
   0.47225188  0.40478732  0.39896556       0.005
   0.47225188  0.47225188  0.39896556       0.002
   0.00000000  0.00000000  0.46545982       0.001
   0.06746455  0.00000000  0.46545982       0.002
   0.13492911  0.00000000  0.46545982       0.002
   0.20239366  0.00000000  0.46545982       0.002
   0.26985821  0.00000000  0.46545982       0.002
   0.33732277  0.00000000  0.46545982       0.002
   0.40478732  0.00000000  0.46545982       0.002
   0.47225188  0.00000000  0.46545982       0.002
   0.06746455  0.06746455  0.46545982       0.002
   0.13492911  0.06746455  0.46545982       0.005
   0.20239366  0.06746455  0.46545982       0.005
   0.26985821  0.06746455  0.46545982       0.005
   0.33732277  0.06746455  0.46545982       0.005
   0.40478732  0.06746455  0.46545982       0.005
   0.47225188  0.06746455  0.46545982       0.005
   0.13492911  0.13492911  0.46545982       0.002
   0.20239366  0.13492911  0.46545982       0.005
   0.26985821  0.13492911  0.46545982       0.005
   0.33732277  0.13492911  0.46545982       0.005
   0.40478732  0.13492911  0.46545982       0.005
   0.47225188  0.13492911  0.46545982       0.005
   0.20239366  0.20239366  0.46545982       0.002
   0.26985821  0.20239366  0.46545982       0.005
   0.33732277  0.20239366  0.46545982       0.005
   0.40478732  0.20239366  0.46545982       0.005
   0.47225188  0.20239366  0.46545982       0.005
   0.26985821  0.26985821  0.46545982       0.002
   0.33732277  0.26985821  0.46545982       0.005
   0.40478732  0.26985821  0.46545982       0.005
   0.47225188  0.26985821  0.46545982       0.005
   0.33732277  0.33732277  0.46545982       0.002
   0.40478732  0.33732277  0.46545982       0.005
   0.47225188  0.33732277  0.46545982       0.005
   0.40478732  0.40478732  0.46545982       0.002
   0.47225188  0.40478732  0.46545982       0.005
   0.47225188  0.47225188  0.46545982       0.002
 
 k-points in reciprocal lattice and weights: Ni7CoMn5CrSn2                           
   0.00000000  0.00000000  0.00000000       0.000
   0.06666667  0.00000000  0.00000000       0.001
   0.13333333  0.00000000  0.00000000       0.001
   0.20000000  0.00000000  0.00000000       0.001
   0.26666667  0.00000000  0.00000000       0.001
   0.33333333  0.00000000  0.00000000       0.001
   0.40000000  0.00000000  0.00000000       0.001
   0.46666667  0.00000000  0.00000000       0.001
   0.06666667  0.06666667  0.00000000       0.001
   0.13333333  0.06666667  0.00000000       0.002
   0.20000000  0.06666667  0.00000000       0.002
   0.26666667  0.06666667  0.00000000       0.002
   0.33333333  0.06666667  0.00000000       0.002
   0.40000000  0.06666667  0.00000000       0.002
   0.46666667  0.06666667  0.00000000       0.002
   0.13333333  0.13333333  0.00000000       0.001
   0.20000000  0.13333333  0.00000000       0.002
   0.26666667  0.13333333  0.00000000       0.002
   0.33333333  0.13333333  0.00000000       0.002
   0.40000000  0.13333333  0.00000000       0.002
   0.46666667  0.13333333  0.00000000       0.002
   0.20000000  0.20000000  0.00000000       0.001
   0.26666667  0.20000000  0.00000000       0.002
   0.33333333  0.20000000  0.00000000       0.002
   0.40000000  0.20000000  0.00000000       0.002
   0.46666667  0.20000000  0.00000000       0.002
   0.26666667  0.26666667  0.00000000       0.001
   0.33333333  0.26666667  0.00000000       0.002
   0.40000000  0.26666667  0.00000000       0.002
   0.46666667  0.26666667  0.00000000       0.002
   0.33333333  0.33333333  0.00000000       0.001
   0.40000000  0.33333333  0.00000000       0.002
   0.46666667  0.33333333  0.00000000       0.002
   0.40000000  0.40000000  0.00000000       0.001
   0.46666667  0.40000000  0.00000000       0.002
   0.46666667  0.46666667  0.00000000       0.001
   0.00000000  0.00000000  0.06666667       0.001
   0.06666667  0.00000000  0.06666667       0.002
   0.13333333  0.00000000  0.06666667       0.002
   0.20000000  0.00000000  0.06666667       0.002
   0.26666667  0.00000000  0.06666667       0.002
   0.33333333  0.00000000  0.06666667       0.002
   0.40000000  0.00000000  0.06666667       0.002
   0.46666667  0.00000000  0.06666667       0.002
   0.06666667  0.06666667  0.06666667       0.002
   0.13333333  0.06666667  0.06666667       0.005
   0.20000000  0.06666667  0.06666667       0.005
   0.26666667  0.06666667  0.06666667       0.005
   0.33333333  0.06666667  0.06666667       0.005
   0.40000000  0.06666667  0.06666667       0.005
   0.46666667  0.06666667  0.06666667       0.005
   0.13333333  0.13333333  0.06666667       0.002
   0.20000000  0.13333333  0.06666667       0.005
   0.26666667  0.13333333  0.06666667       0.005
   0.33333333  0.13333333  0.06666667       0.005
   0.40000000  0.13333333  0.06666667       0.005
   0.46666667  0.13333333  0.06666667       0.005
   0.20000000  0.20000000  0.06666667       0.002
   0.26666667  0.20000000  0.06666667       0.005
   0.33333333  0.20000000  0.06666667       0.005
   0.40000000  0.20000000  0.06666667       0.005
   0.46666667  0.20000000  0.06666667       0.005
   0.26666667  0.26666667  0.06666667       0.002
   0.33333333  0.26666667  0.06666667       0.005
   0.40000000  0.26666667  0.06666667       0.005
   0.46666667  0.26666667  0.06666667       0.005
   0.33333333  0.33333333  0.06666667       0.002
   0.40000000  0.33333333  0.06666667       0.005
   0.46666667  0.33333333  0.06666667       0.005
   0.40000000  0.40000000  0.06666667       0.002
   0.46666667  0.40000000  0.06666667       0.005
   0.46666667  0.46666667  0.06666667       0.002
   0.00000000  0.00000000  0.13333333       0.001
   0.06666667  0.00000000  0.13333333       0.002
   0.13333333  0.00000000  0.13333333       0.002
   0.20000000  0.00000000  0.13333333       0.002
   0.26666667  0.00000000  0.13333333       0.002
   0.33333333  0.00000000  0.13333333       0.002
   0.40000000  0.00000000  0.13333333       0.002
   0.46666667  0.00000000  0.13333333       0.002
   0.06666667  0.06666667  0.13333333       0.002
   0.13333333  0.06666667  0.13333333       0.005
   0.20000000  0.06666667  0.13333333       0.005
   0.26666667  0.06666667  0.13333333       0.005
   0.33333333  0.06666667  0.13333333       0.005
   0.40000000  0.06666667  0.13333333       0.005
   0.46666667  0.06666667  0.13333333       0.005
   0.13333333  0.13333333  0.13333333       0.002
   0.20000000  0.13333333  0.13333333       0.005
[...]
    114      13.7420      0.00000
    115      13.7997      0.00000
    116      13.8727      0.00000
    117      14.6059      0.00000
    118      14.7197      0.00000
    119      14.7568      0.00000
    120      14.7568      0.00000
    121      14.7590      0.00000
    122      14.8561      0.00000
    123      14.8561      0.00000
    124      14.8941      0.00000


--------------------------------------------------------------------------------------------------------


 soft charge-density along one line, spin component           1
         0         1         2         3         4         5         6         7         8         9
 total charge-density along one line
 
 soft charge-density along one line, spin component           2
         0         1         2         3         4         5         6         7         8         9
 total charge-density along one line
 
 pseudopotential strength for first ion, spin component:           1
-44.632  -0.000   0.000   7.449   0.000  -0.000  -0.000   0.000
 -0.000 -44.601  -0.000   0.000   7.436   0.000   0.018   0.000
  0.000  -0.000 -44.632  -0.000   0.000   7.449   0.000   0.018
  7.449   0.000  -0.000   5.679   0.000  -0.000   0.000  -0.000
  0.000   7.436   0.000   0.000   5.684   0.000  -0.007  -0.000
 -0.000   0.000   7.449  -0.000   0.000   5.679  -0.000  -0.007
 -0.000   0.018   0.000   0.000  -0.007  -0.000  -1.823   0.000
  0.000   0.000   0.018  -0.000  -0.000  -0.007   0.000  -1.774
 -0.000   0.000   0.000   0.000  -0.000  -0.000  -0.000   0.000
  0.018  -0.000   0.000  -0.007   0.000  -0.000   0.000   0.000
 -0.000  -0.000  -0.000   0.000   0.000   0.000   0.000   0.000
 -0.000   0.018   0.000   0.000  -0.007  -0.000  -2.342   0.000
  0.000   0.000   0.018  -0.000  -0.000  -0.007   0.000  -2.294
 -0.000   0.000   0.000   0.000  -0.000  -0.000  -0.000   0.000
  0.018  -0.000   0.000  -0.007   0.000  -0.000   0.000   0.000
 -0.000  -0.000  -0.000   0.000   0.000   0.000   0.000   0.000
 -0.000  -0.000   0.000  -0.000  -0.000   0.000  -0.000   0.000
 -0.000  -0.000   0.000  -0.000  -0.000   0.000  -0.000   0.000
 pseudopotential strength for first ion, spin component:           2
-43.151   0.000   0.000   6.823  -0.000  -0.000  -0.000   0.000
  0.000 -43.148   0.000  -0.000   6.822  -0.000  -0.004   0.000
  0.000   0.000 -43.151  -0.000  -0.000   6.823   0.000  -0.004
  6.823  -0.000  -0.000   5.852  -0.000  -0.000   0.000  -0.000
 -0.000   6.822  -0.000  -0.000   5.853  -0.000   0.004  -0.000
 -0.000  -0.000   6.823  -0.000  -0.000   5.852  -0.000   0.004
 -0.000  -0.004   0.000   0.000   0.004  -0.000  -0.655   0.000
  0.000   0.000  -0.004  -0.000  -0.000   0.004   0.000  -0.683
 -0.000   0.000   0.000   0.000  -0.000  -0.000  -0.000  -0.000
 -0.004  -0.000   0.000   0.004   0.000  -0.000   0.000   0.000
 -0.000  -0.000  -0.000   0.000   0.000   0.000   0.000  -0.000
 -0.000  -0.003   0.000   0.000   0.004  -0.000  -1.194   0.000
  0.000   0.000  -0.003  -0.000  -0.000   0.004   0.000  -1.221
 -0.000   0.000   0.000   0.000  -0.000  -0.000  -0.000  -0.000
 -0.003  -0.000   0.000   0.004   0.000  -0.000   0.000   0.000
 -0.000  -0.000  -0.000   0.000   0.000   0.000   0.000  -0.000
 -0.000  -0.000   0.000  -0.000  -0.000   0.000  -0.000  -0.000
 -0.000  -0.000   0.000  -0.000  -0.000   0.000  -0.000  -0.000
 total augmentation occupancy for first ion, spin component:           1
  1.994   0.000   0.000  -0.019   0.000   0.000   0.000   0.000  -0.000  -0.001   0.000   0.000   0.000   0.000   0.000   0.000
  0.000   1.994  -0.000   0.000  -0.019   0.000  -0.001  -0.000   0.000   0.000   0.000   0.000   0.000   0.000   0.000  -0.000
  0.000  -0.000   1.994   0.000   0.000  -0.019   0.000  -0.001  -0.000   0.000  -0.000   0.000   0.000   0.000   0.000  -0.000
 -0.019   0.000   0.000   0.194   0.000   0.000   0.000  -0.000  -0.000  -0.062  -0.000   0.000   0.000  -0.000   0.022   0.000
 -0.000  -0.019   0.000   0.000   0.185   0.000  -0.060  -0.000  -0.000   0.000   0.000   0.019   0.000   0.000   0.000  -0.000
  0.000   0.000  -0.019   0.000  -0.000   0.194   0.000  -0.062  -0.000   0.000  -0.000  -0.000   0.022   0.000  -0.000  -0.000
  0.000  -0.001   0.000  -0.000  -0.060  -0.000   2.179   0.000  -0.000  -0.000  -0.000  -1.396   0.000   0.000   0.000  -0.000
  0.000   0.000  -0.001  -0.000   0.000  -0.062   0.000   2.101   0.000  -0.000  -0.000   0.000  -1.325  -0.000   0.000   0.000
  0.000   0.000   0.000   0.000  -0.000   0.000  -0.000  -0.000   2.519   0.000   0.000   0.000  -0.000  -1.624   0.000  -0.000
 -0.001   0.000   0.000  -0.062   0.000   0.000  -0.000   0.000   0.000   2.101   0.000  -0.000  -0.000  -0.000  -1.325   0.000
 -0.000   0.000  -0.000  -0.000   0.000   0.000  -0.000  -0.000   0.000  -0.000   2.426  -0.000   0.000   0.000   0.000  -1.573
  0.000   0.000   0.000  -0.000   0.019   0.000  -1.396  -0.000   0.000   0.000   0.000   2.020  -0.000   0.000  -0.000  -0.000
  0.000   0.000   0.000   0.000   0.000   0.022   0.000  -1.325   0.000  -0.000   0.000   0.000   1.991   0.000  -0.000   0.000
 -0.000   0.000   0.000  -0.000   0.000   0.000  -0.000   0.000  -1.624  -0.000   0.000   0.000   0.000   1.966  -0.000  -0.000
  0.000   0.000   0.000   0.022   0.000  -0.000   0.000   0.000   0.000  -1.325   0.000   0.000   0.000  -0.000   1.991   0.000
  0.000  -0.000  -0.000   0.000  -0.000  -0.000   0.000  -0.000  -0.000  -0.000  -1.573   0.000   0.000   0.000  -0.000   1.971
  0.000   0.000  -0.000   0.000   0.000  -0.000   0.000   0.000   0.028   0.000   0.000   0.000  -0.000  -0.037   0.000   0.000
  0.000   0.000   0.000   0.000   0.000   0.000   0.000   0.000   0.000   0.000   0.000  -0.000   0.000  -0.000   0.000   0.000
 total augmentation occupancy for first ion, spin component:           2
 -0.002   0.000   0.000  -0.006   0.000   0.000   0.000   0.000  -0.000  -0.009   0.000   0.000   0.000   0.000   0.009   0.000
  0.000  -0.001   0.000   0.000  -0.006  -0.000  -0.008   0.000   0.000  -0.000   0.000   0.009   0.000   0.000   0.000   0.000
  0.000   0.000  -0.002   0.000  -0.000  -0.006   0.000  -0.009  -0.000   0.000  -0.000   0.000   0.009  -0.000   0.000   0.000
 -0.006   0.000   0.000  -0.009  -0.000   0.000  -0.000   0.000   0.000   0.045  -0.000  -0.000   0.000   0.000  -0.006   0.000
  0.000  -0.006  -0.000   0.000  -0.004   0.000   0.051  -0.000   0.000   0.000   0.000  -0.008   0.000   0.000   0.000  -0.000
  0.000  -0.000  -0.006   0.000   0.000  -0.009  -0.000   0.045  -0.000  -0.000  -0.000   0.000  -0.006  -0.000   0.000   0.000
  0.000  -0.008   0.000   0.000   0.051   0.000   1.170  -0.000   0.000  -0.000  -0.000  -0.334  -0.000   0.000   0.000  -0.000
  0.000  -0.000  -0.009   0.000  -0.000   0.045  -0.000   0.997  -0.000  -0.000   0.000  -0.000  -0.279   0.000   0.000  -0.000
  0.000   0.000   0.000   0.000  -0.000  -0.000   0.000  -0.000   1.846   0.000  -0.000   0.000   0.000  -0.605  -0.000   0.000
 -0.009   0.000   0.000   0.045   0.000  -0.000   0.000   0.000   0.000   0.997   0.000  -0.000   0.000  -0.000  -0.279   0.000
 -0.000   0.000   0.000   0.000   0.000  -0.000  -0.000   0.000   0.000   0.000   1.812   0.000   0.000   0.000   0.000  -0.601
 -0.000   0.009   0.000  -0.000  -0.008   0.000  -0.334  -0.000   0.000   0.000  -0.000  -0.152   0.000   0.000   0.000   0.000
  0.000   0.000   0.009   0.000   0.000  -0.006  -0.000  -0.279   0.000  -0.000   0.000  -0.000  -0.161   0.000  -0.000  -0.000
 -0.000   0.000   0.000   0.000   0.000  -0.000  -0.000   0.000  -0.605  -0.000   0.000  -0.000   0.000  -0.034  -0.000  -0.000
  0.009  -0.000   0.000  -0.006   0.000   0.000  -0.000  -0.000   0.000  -0.279   0.000   0.000   0.000  -0.000  -0.161   0.000
  0.000   0.000   0.000   0.000  -0.000  -0.000  -0.000   0.000   0.000  -0.000  -0.601   0.000   0.000   0.000   0.000  -0.049
  0.000   0.000  -0.000   0.000   0.000   0.000   0.000   0.000   0.017   0.000  -0.000   0.000  -0.000   0.005   0.000   0.000
  0.000   0.000   0.000   0.000   0.000   0.000   0.000   0.000   0.000   0.000   0.000  -0.000   0.000  -0.000   0.000   0.000


------------------------ aborting loop because EDIFF is reached ----------------------------------------





 total charge

# of ion       s       p       d       tot
------------------------------------------
    1        0.328   6.359   6.255  12.942
    2        0.328   6.359   6.255  12.942
    3        0.328   6.359   6.255  12.942
    4        0.328   6.359   6.255  12.942
    5        0.362   6.356   6.070  12.788
    6        0.362   6.356   6.070  12.788
    7        0.362   6.356   6.070  12.788
    8        0.362   6.356   6.070  12.788
    9        0.413   6.465   7.455  14.333
   10        0.413   6.465   7.455  14.333
   11        0.413   6.465   7.455  14.333
   12        0.413   6.465   7.455  14.333
   13        1.057   1.289   0.158   2.504
   14        1.057   1.289   0.158   2.504
   15        1.057   1.289   0.158   2.504
   16        1.057   1.289   0.158   2.504
--------------------------------------------------
tot          8.639  81.876  79.753 170.268



 magnetization (x)

# of ion       s       p       d       tot
------------------------------------------
    1        0.001  -0.016   1.722   1.706
    2        0.001  -0.016   1.722   1.706
    3        0.001  -0.016   1.722   1.706
    4        0.001  -0.016   1.722   1.706
    5        0.002  -0.004   2.671   2.669
    6        0.002  -0.004   2.671   2.669
    7        0.002  -0.004   2.671   2.669
    8        0.002  -0.004   2.671   2.669
    9       -0.004  -0.022   0.974   0.948
   10       -0.004  -0.022   0.974   0.948
   11       -0.004  -0.022   0.974   0.948
   12       -0.004  -0.022   0.974   0.948
   13        0.006  -0.044  -0.013  -0.051
   14        0.006  -0.044  -0.013  -0.051
   15        0.006  -0.044  -0.013  -0.051
   16        0.006  -0.044  -0.013  -0.051
--------------------------------------------------
tot          0.017  -0.343  21.418  21.092
 
    CHARGE:  cpu time    2.5162: real time    2.5227
    FORLOC:  cpu time    0.0040: real time    0.0030
    FORNL :  cpu time   18.6412: real time   18.6982
    STRESS:  cpu time   55.3395: real time   55.5048
    FORCOR:  cpu time    0.0360: real time    0.0355
    FORHAR:  cpu time    0.0040: real time    0.0060
    MIXING:  cpu time    0.0040: real time    0.0015
    OFIELD:  cpu time    0.0000: real time    0.0000

  FORCE on cell =-STRESS in cart. coord.  units (eV):
  Direction    XX          YY          ZZ          XY          YZ          ZX
  --------------------------------------------------------------------------------------
  Alpha Z  1335.10449  1335.10449  1335.10449
  Ewald   -7239.00592 -7239.00592 -7270.36667    -0.00000     0.00000     0.00000
  Hartree  2843.41508  2843.41508  2817.78816    -0.00000    -0.00000    -0.00000
  E(xc)   -1175.06527 -1175.06527 -1175.08360     0.00000    -0.00000     0.00000
  Local    1035.85240  1035.85240  1094.59343    -0.00000     0.00000     0.00000
  n-local  -293.14248  -290.59841  -292.22982    -0.56890    -1.06088    -0.12591
  augment  1717.61953  1717.61953  1716.75348     0.00000     0.00004     0.00004
  Kinetic  1768.83343  1779.09500  1773.31815    -1.41096    -1.23998    -0.38720
  Fock        0.00000     0.00000     0.00000     0.00000     0.00000     0.00000
  -------------------------------------------------------------------------------------
  Total       0.01407     0.01407    -0.12238     0.00000    -0.00000     0.00000
  in kB       0.12049     0.12049    -1.04800     0.00000    -0.00000     0.00000
  external pressure =       -0.27 kB  Pullay stress =        0.00 kB


 VOLUME and BASIS-vectors are now :
 -----------------------------------------------------------------------------
  energy-cutoff  :      500.00
  volume of cell :      187.09
      direct lattice vectors                 reciprocal lattice vectors
     5.691877867  0.000000000  0.000000000     0.175688942  0.000000000  0.000000000
     0.000000000  5.691877867  0.000000000     0.000000000  0.175688942  0.000000000
     0.000000000  0.000000000  5.774934509     0.000000000  0.000000000  0.173162137

  length of vectors
     5.691877867  5.691877867  5.774934509     0.175688942  0.175688942  0.173162137


 FORCES acting on ions
    electron-ion (+dipol)            ewald-force                    non-local-force                 convergence-correction
 -----------------------------------------------------------------------------------------------
   -.159E-12 0.170E-11 0.176E-11   -.142E-13 -.924E-13 -.142E-13   0.173E-17 -.173E-17 0.867E-18   0.528E-12 -.217E-12 -.615E-12
   0.802E-13 -.619E-13 0.174E-11   0.711E-14 -.782E-13 -.142E-13   0.000E+00 0.347E-17 0.867E-18   0.755E-12 0.208E-12 -.117E-12
   0.189E-11 0.975E-11 -.599E-11   0.284E-13 -.711E-13 -.142E-13   0.000E+00 0.000E+00 0.867E-18   -.434E-12 0.185E-12 -.151E-12
   0.161E-11 -.105E-12 -.440E-11   0.000E+00 -.995E-13 -.142E-13   0.173E-17 -.347E-17 0.867E-18   -.617E-12 -.262E-12 -.643E-12
   0.934E-12 0.462E-11 -.214E+02   0.184E-12 0.117E-12 0.228E+02   0.434E-18 0.000E+00 -.140E+01   0.366E-12 -.367E-12 0.216E-01
   0.241E-11 0.961E-11 -.214E+02   0.214E-12 0.115E-12 0.228E+02   0.434E-18 0.000E+00 -.140E+01   -.302E-12 -.431E-12 0.216E-01
   0.953E-12 -.605E-12 0.214E+02   0.133E-12 0.106E-12 -.228E+02   -.434E-18 0.217E-18 0.140E+01   0.299E-12 -.313E-12 -.216E-01
   0.240E-11 0.101E-10 0.214E+02   0.135E-12 0.136E-12 -.228E+02   -.434E-18 0.217E-18 0.140E+01   -.275E-12 -.313E-12 -.216E-01
   0.160E-11 0.183E-11 -.208E-10   -.121E-12 -.142E-13 -.284E-13   0.173E-17 -.173E-17 -.867E-18   -.729E-12 -.239E-12 0.423E-12
   -.400E-12 -.621E-13 -.292E-12   -.163E-12 -.284E-13 -.284E-13   0.173E-17 -.173E-17 -.867E-18   0.602E-12 -.258E-12 0.466E-12
   0.232E-11 -.101E-13 -.314E-10   -.149E-12 -.121E-12 -.142E-13   0.000E+00 0.000E+00 0.173E-17   -.451E-12 0.161E-12 0.967E-12
   0.320E-12 0.192E-11 -.337E-12   -.192E-12 -.114E-12 -.142E-13   0.000E+00 0.000E+00 0.173E-17   0.854E-12 0.193E-12 0.933E-12
   -.263E-13 0.621E-12 -.132E+02   -.362E-13 0.141E-13 0.133E+02   0.000E+00 0.000E+00 -.144E+00   0.428E-13 0.273E-13 0.592E-02
   -.200E-13 -.828E-12 0.132E+02   0.666E-14 0.708E-13 -.133E+02   0.000E+00 0.000E+00 0.144E+00   0.360E-13 0.378E-13 -.592E-02
   -.583E-13 -.205E-12 -.132E+02   -.280E-13 0.151E-13 0.133E+02   0.000E+00 0.000E+00 -.144E+00   -.497E-13 0.433E-13 0.592E-02
   -.520E-13 -.148E-11 0.132E+02   0.780E-14 0.706E-13 -.133E+02   0.000E+00 0.000E+00 0.144E+00   -.517E-13 0.297E-13 -.592E-02
 -----------------------------------------------------------------------------------------------
   0.138E-10 0.368E-10 -.547E-10   0.120E-13 0.255E-13 0.782E-13   0.694E-17 -.477E-17 0.555E-16   0.573E-12 -.151E-11 0.238E-11
 
 
 POSITION                                       TOTAL-FORCE (eV/Angst)
 -----------------------------------------------------------------------------------
      0.00000      2.84594      2.88747         0.000000     -0.000000      0.000000
      0.00000      0.00000      2.88747        -0.000000     -0.000000      0.000000
      2.84594      2.84594      2.88747        -0.000000      0.000000      0.000000
      2.84594      0.00000      2.88747        -0.000000      0.000000      0.000000
      1.42297      4.26891      1.48120        -0.000000      0.000000      0.006774
      4.26891      1.42297      1.48120         0.000000     -0.000000      0.006774
      1.42297      1.42297      4.29374        -0.000000      0.000000     -0.006774
      4.26891      4.26891      4.29374        -0.000000      0.000000     -0.006774
      2.84594      2.84594      0.00000        -0.000000     -0.000000     -0.000000
      0.00000      0.00000      0.00000        -0.000000      0.000000      0.000000
      2.84594      0.00000      0.00000         0.000000     -0.000000      0.000000
      0.00000      2.84594      0.00000         0.000000      0.000000      0.000000
      1.42297      1.42297      1.42094        -0.000000     -0.000000      0.005905
      1.42297      4.26891      4.35399         0.000000     -0.000000     -0.005905
      4.26891      4.26891      1.42094        -0.000000     -0.000000      0.005905
      4.26891      1.42297      4.35399         0.000000     -0.000000     -0.005905
 -----------------------------------------------------------------------------------
    total drift:                                0.000000      0.000000     -0.000000


--------------------------------------------------------------------------------------------------------



  FREE ENERGIE OF THE ION-ELECTRON SYSTEM (eV)
  ---------------------------------------------------
  free  energy   TOTEN  =      -114.64685001 eV

  energy  without entropy=     -114.64881615  energy(sigma->0) =     -114.64750539
 


--------------------------------------------------------------------------------------------------------


    POTLOK:  cpu time    0.1080: real time    0.1073


--------------------------------------------------------------------------------------------------------


     LOOP+:  cpu time 1826.1341: real time 1831.9557
    4ORBIT:  cpu time    0.0000: real time    0.0000



 total charge

# of ion       s       p       d       tot
------------------------------------------
    1        0.328   6.359   6.255  12.942
    2        0.328   6.359   6.255  12.942
    3        0.328   6.359   6.255  12.942
    4        0.328   6.359   6.255  12.942
    5        0.362   6.356   6.070  12.788
    6        0.362   6.356   6.070  12.788
    7        0.362   6.356   6.070  12.788
    8        0.362   6.356   6.070  12.788
    9        0.413   6.465   7.455  14.333
   10        0.413   6.465   7.455  14.333
   11        0.413   6.465   7.455  14.333
   12        0.413   6.465   7.455  14.333
   13        1.057   1.289   0.158   2.504
   14        1.057   1.289   0.158   2.504
   15        1.057   1.289   0.158   2.504
   16        1.057   1.289   0.158   2.504
--------------------------------------------------
tot          8.639  81.876  79.753 170.268



 magnetization (x)

# of ion       s       p       d       tot
------------------------------------------
    1        0.001  -0.016   1.722   1.706
    2        0.001  -0.016   1.722   1.706
    3        0.001  -0.016   1.722   1.706
    4        0.001  -0.016   1.722   1.706
    5        0.002  -0.004   2.671   2.669
    6        0.002  -0.004   2.671   2.669
    7        0.002  -0.004   2.671   2.669
    8        0.002  -0.004   2.671   2.669
    9       -0.004  -0.022   0.974   0.948
   10       -0.004  -0.022   0.974   0.948
   11       -0.004  -0.022   0.974   0.948
   12       -0.004  -0.022   0.974   0.948
   13        0.006  -0.044  -0.013  -0.051
   14        0.006  -0.044  -0.013  -0.051
   15        0.006  -0.044  -0.013  -0.051
   16        0.006  -0.044  -0.013  -0.051
--------------------------------------------------
tot          0.017  -0.343  21.418  21.092
 

 total amount of memory used by VASP MPI-rank0   289189. kBytes
=======================================================================

   base      :      30000. kBytes
   nonlr-proj:       3545. kBytes
   fftplans  :       4038. kBytes
   grid      :       3529. kBytes
   one-center:         93. kBytes
   wavefun   :     247984. kBytes
 
  
  
 General timing and accounting informations for this job:
 ========================================================
  
                  Total CPU time used (sec):     1862.424
                            User time (sec):     1852.208
                          System time (sec):       10.217
                         Elapsed time (sec):     1868.776
  
                   Maximum memory used (kb):      359600.
                   Average memory used (kb):          N/A
  
                          Minor page faults:       162342
                          Major page faults:            0
                 Voluntary context switches:         3121
